unknown system
   1.00000000000000
     4.351552    0.010650    0.000000
    -2.097014    3.812957    0.000000
     0.000000    0.000000    4.406008
   Ga
     4
Direct
  0.156043  0.843957  0.916654
  0.343957  0.656043  0.416654
  0.843957  0.156043  0.083346
  0.656043  0.343957  0.583346

   40   40   40
 0.26195609962E+02 0.26070940146E+02 0.25651692774E+02 0.24893525368E+02 0.23667545068E+02
 0.21940700426E+02 0.19857790198E+02 0.17757702857E+02 0.16059618838E+02 0.15068480300E+02
 0.14844064294E+02 0.15209540359E+02 0.15856736176E+02 0.16474623009E+02 0.16852876283E+02
 0.16925930231E+02 0.16747409714E+02 0.16428241579E+02 0.16084396797E+02 0.15815344865E+02
 0.15708137308E+02 0.15815344865E+02 0.16084396797E+02 0.16428241579E+02 0.16747409714E+02
 0.16925930231E+02 0.16852876283E+02 0.16474623009E+02 0.15856736176E+02 0.15209540359E+02
 0.14844064294E+02 0.15068480300E+02 0.16059618838E+02 0.17757702857E+02 0.19857790198E+02
 0.21940700426E+02 0.23667545068E+02 0.24893525368E+02 0.25651692774E+02 0.26070940146E+02
 0.26070940220E+02 0.25829249256E+02 0.25357618668E+02 0.24672147894E+02 0.23773121765E+02
 0.22606775075E+02 0.21202952319E+02 0.19698382936E+02 0.18306472508E+02 0.17231104158E+02
 0.16573895427E+02 0.16298721072E+02 0.16268543967E+02 0.16318326103E+02 0.16320655347E+02
 0.16219355457E+02 0.16026650586E+02 0.15796775845E+02 0.15598239210E+02 0.15521539733E+02
 0.15572166641E+02 0.15863535993E+02 0.16314811686E+02 0.16824373389E+02 0.17260641734E+02
 0.17448263727E+02 0.17189198198E+02 0.16341698350E+02 0.14942179345E+02 0.13285241696E+02
 0.11867113441E+02 0.11217487535E+02 0.11727659298E+02 0.13509988172E+02 0.16286623646E+02
 0.19424229848E+02 0.22225205077E+02 0.24260681413E+02 0.25460564907E+02 0.25986320537E+02
 0.25651693053E+02 0.25357618865E+02 0.24764856080E+02 0.23997736608E+02 0.23121400309E+02
 0.22147655829E+02 0.21061862641E+02 0.19906765751E+02 0.18775399825E+02 0.17776424666E+02
 0.16986613083E+02 0.16420150495E+02 0.16033229859E+02 0.15755297990E+02 0.15524469660E+02
 0.15309093973E+02 0.15111100701E+02 0.14956441120E+02 0.14883389051E+02 0.14950868574E+02
 0.15174222538E+02 0.15657000625E+02 0.16275096021E+02 0.16966572352E+02 0.17558619261E+02
 0.17818762694E+02 0.17445014280E+02 0.16159473696E+02 0.13909864223E+02 0.11066432167E+02
 0.83653730731E+01 0.65627434984E+01 0.61638526079E+01 0.74324684714E+01 0.10393265105E+02
 0.14547209157E+02 0.18839175389E+02 0.22277473067E+02 0.24447540380E+02 0.25460565162E+02
 0.24893526050E+02 0.24672148367E+02 0.23997736863E+02 0.23101938183E+02 0.22115405776E+02
 0.21120609416E+02 0.20118219352E+02 0.19106901391E+02 0.18119176612E+02 0.17205499935E+02
 0.16410315804E+02 0.15753305756E+02 0.15226523789E+02 0.14806378686E+02 0.14470590530E+02
 0.14209482035E+02 0.14028301433E+02 0.13943345212E+02 0.13977808611E+02 0.14167901274E+02
 0.14542297050E+02 0.15168012393E+02 0.15964947278E+02 0.16843050813E+02 0.17627982481E+02
 0.18050358434E+02 0.17716653082E+02 0.16188327220E+02 0.13251256297E+02 0.93132471572E+01
 0.54778598472E+01 0.28433744902E+01 0.17469324269E+01 0.20501473201E+01 0.39691475878E+01
 0.79686152596E+01 0.13395510007E+02 0.18576706974E+02 0.22277473698E+02 0.24260682204E+02
 0.23667546398E+02 0.23773122676E+02 0.23121400845E+02 0.22115406017E+02 0.21015766298E+02
 0.19873928214E+02 0.18826239237E+02 0.17832907547E+02 0.16893722098E+02 0.16027051410E+02
 0.15254951322E+02 0.14590644054E+02 0.14034829944E+02 0.13581115309E+02 0.13224786728E+02
 0.12968590028E+02 0.12823042250E+02 0.12803483442E+02 0.12945673061E+02 0.13221401573E+02
 0.13717511017E+02 0.14454458942E+02 0.15399152390E+02 0.16451089673E+02 0.17447916225E+02
 0.18115713782E+02 0.18013808582E+02 0.16567744554E+02 0.13340205021E+02 0.86366163292E+01
 0.39940308463E+01 0.12990952301E+01 0.71258494361E+00 0.79734586072E+00 0.85008107334E+00
 0.24283960944E+01 0.70913003842E+01 0.13395511073E+02 0.18839177074E+02 0.22225206752E+02
 0.21940702621E+02 0.22606776579E+02 0.22147656750E+02 0.21120609894E+02 0.19873928386E+02
 0.18614942653E+02 0.17469746901E+02 0.16407837321E+02 0.15459197716E+02 0.14603063418E+02
 0.13846821221E+02 0.13196831592E+02 0.12653558695E+02 0.12214233506E+02 0.11878690055E+02
 0.11653409512E+02 0.11551557359E+02 0.11589911785E+02 0.11789475082E+02 0.12163922321E+02
 0.12748145413E+02 0.13561545537E+02 0.14607479491E+02 0.15801370898E+02 0.16999909652E+02
 0.17955641674E+02 0.18241187511E+02 0.17223852198E+02 0.14252352602E+02 0.93048197756E+01
 0.39867234146E+01 0.13255980785E+01 0.23147681624E+01 0.37627748218E+01 0.29580777803E+01
 0.11022184490E+01 0.24283965902E+01 0.79686172258E+01 0.14547212037E+02 0.19424232652E+02
 0.19857793298E+02 0.21202954485E+02 0.21061864006E+02 0.20118220118E+02 0.18826239581E+02
 0.17469746901E+02 0.16153585769E+02 0.15018645616E+02 0.14033943453E+02 0.13152470718E+02
 0.12397722513E+02 0.11759584008E+02 0.11236139250E+02 0.10823690837E+02 0.10520969756E+02
 0.10333285517E+02 0.10284132260E+02 0.10360552852E+02 0.10609723515E+02 0.11046706258E+02
 0.11684329054E+02 0.12539584802E+02 0.13638743817E+02 0.14921645591E+02 0.16282119630E+02
 0.17512079271E+02 0.18247464537E+02 0.17895612300E+02 0.15702260306E+02 0.11225964097E+02
 0.54546961424E+01 0.17061167092E+01 0.30603981206E+01 0.65384054278E+01 0.64505609445E+01
 0.29580772114E+01 0.85008098253E+00 0.39691495503E+01 0.10393268717E+02 0.16286627468E+02
 0.17757706598E+02 0.19698385665E+02 0.19906767532E+02 0.19106902446E+02 0.17832908083E+02
 0.16407837509E+02 0.15018645616E+02 0.13778735553E+02 0.12715633338E+02 0.11806030439E+02
 0.11037314050E+02 0.10402077844E+02 0.98931837466E+01 0.95033134972E+01 0.92284652049E+01
 0.90718856833E+01 0.90451458506E+01 0.91654331822E+01 0.94507381931E+01 0.99161489174E+01
 0.10574129738E+02 0.11439138940E+02 0.12533302234E+02 0.13857013580E+02 0.15318970210E+02
 0.16761676138E+02 0.17906497558E+02 0.18272300397E+02 0.17153859968E+02 0.13852825490E+02
 0.84750179422E+01 0.31872137799E+01 0.18698948561E+01 0.49825459064E+01 0.65384055360E+01
 0.37627742012E+01 0.79734530047E+00 0.20501486500E+01 0.74324719846E+01 0.13509992452E+02
 0.16059622685E+02 0.18306475507E+02 0.18775401878E+02 0.18119177889E+02 0.16893722802E+02
 0.15459198018E+02 0.14033943453E+02 0.12715633338E+02 0.11594771429E+02 0.10644140173E+02
 0.98478338349E+01 0.91974621553E+01 0.86863506542E+01 0.83068712992E+01 0.80522359727E+01
 0.79204213776E+01 0.79168296179E+01 0.80537410768E+01 0.83469327423E+01 0.88116744191E+01
 0.94609477421E+01 0.10307562222E+02 0.11368964905E+02 0.12670524000E+02 0.14160549841E+02
 0.15729312444E+02 0.17173827478E+02 0.18145978684E+02 0.18090885490E+02 0.16307123689E+02
 0.12346299970E+02 0.69153138424E+01 0.25751118634E+01 0.18698950612E+01 0.30603987852E+01
 0.23147681336E+01 0.71258451945E+00 0.17469332081E+01 0.61638554143E+01 0.11727663280E+02
 0.15068483658E+02 0.17231107016E+02 0.17776426755E+02 0.17205501308E+02 0.16027052220E+02
 0.14603063812E+02 0.13152470835E+02 0.11806030439E+02 0.10644140173E+02 0.96647173836E+01
 0.88483239379E+01 0.81843612207E+01 0.76658104955E+01 0.72852376037E+01 0.70347864860E+01
 0.69092565806E+01 0.69093910667E+01 0.70429764640E+01 0.73231184532E+01 0.77647934332E+01
 0.83818684723E+01 0.91867491684E+01 0.10193183194E+02 0.11420013204E+02 0.12891560700E+02
 0.14479368717E+02 0.16091241784E+02 0.17476524676E+02 0.18250508805E+02 0.17863482847E+02
 0.15746107970E+02 0.11770444648E+02 0.69153129212E+01 0.31872126476E+01 0.17061161790E+01
 0.13255977084E+01 0.12990946699E+01 0.28433746735E+01 0.65627452824E+01 0.11217490610E+02
 0.14844066737E+02 0.16573897771E+02 0.16986614951E+02 0.16410317119E+02 0.15254952149E+02
 0.13846821662E+02 0.12397722675E+02 0.11037314050E+02 0.98478338349E+01 0.88483239379E+01
 0.80172303225E+01 0.73415884165E+01 0.68132712035E+01 0.64247896290E+01 0.61679990240E+01
 0.60360221683E+01 0.60263815035E+01 0.61430150568E+01 0.63959866462E+01 0.67991046632E+01
 0.73667545209E+01 0.81118148548E+01 0.90460837328E+01 0.10182895519E+02 0.11539321083E+02
 0.13096963481E+02 0.14755214216E+02 0.16357238430E+02 0.17655456068E+02 0.18278105708E+02
 0.17762887593E+02 0.15746107231E+02 0.12346298158E+02 0.84750152602E+01 0.54546933646E+01
 0.39867210967E+01 0.39940290707E+01 0.54778589761E+01 0.83653736025E+01 0.11867115271E+02
 0.15209541729E+02 0.16298722690E+02 0.16420151950E+02 0.15753306873E+02 0.14590644809E+02
 0.13196832026E+02 0.11759584189E+02 0.10402077844E+02 0.91974621553E+01 0.81843612207E+01
 0.73415884165E+01 0.66549174621E+01 0.61150815636E+01 0.57142143283E+01 0.54440482389E+01
 0.52968907101E+01 0.52682046173E+01 0.53588722623E+01 0.55758399334E+01 0.59308667847E+01
 0.64379318722E+01 0.71104757945E+01 0.79599217820E+01 0.89963227515E+01 0.10230372064E+02
 0.11674193105E+02 0.13279618930E+02 0.14941064435E+02 0.16497134886E+02 0.17713826102E+02
 0.18278105389E+02 0.17863481875E+02 0.16307121702E+02 0.13852822365E+02 0.11225960212E+02
 0.93048158595E+01 0.86366130462E+01 0.93132449810E+01 0.11066431387E+02 0.13285242231E+02
 0.15856736573E+02 0.16268544837E+02 0.16033230824E+02 0.15226524624E+02 0.14034830558E+02
 0.12653559075E+02 0.11236139424E+02 0.98931837466E+01 0.86863506542E+01 0.76658104955E+01
 0.68132712035E+01 0.61150815636E+01 0.55616397895E+01 0.51447900840E+01 0.48561518870E+01
 0.46876181739E+01 0.46333919732E+01 0.46920957305E+01 0.48678186863E+01 0.51697137208E+01
 0.56102869396E+01 0.62028836767E+01 0.69592843715E+01 0.78885193326E+01 0.89974293928E+01
 0.10292058276E+02 0.11777458750E+02 0.13382082010E+02 0.15006523159E+02 0.16497134781E+02
 0.17655455703E+02 0.18250507942E+02 0.18090883838E+02 0.17153857314E+02 0.15702256720E+02
 0.14252348543E+02 0.13340201183E+02 0.13251253315E+02 0.13909862466E+02 0.14942178820E+02
 0.16474622710E+02 0.16318326357E+02 0.15755298494E+02 0.14806379221E+02 0.13581115750E+02
 0.12214233800E+02 0.10823690981E+02 0.95033134972E+01 0.83068712992E+01 0.72852376037E+01
 0.64247896290E+01 0.57142143283E+01 0.51447900840E+01 0.47086295070E+01 0.43974205610E+01
 0.42028605538E+01 0.41183864353E+01 0.41410376370E+01 0.42725395412E+01 0.45193355372E+01
 0.48916521226E+01 0.54017214613E+01 0.60614407483E+01 0.68801781617E+01 0.78636801633E+01
 0.90144767645E+01 0.10332815975E+02 0.11815887494E+02 0.13382081989E+02 0.14941064334E+02
 0.16357238143E+02 0.17476524046E+02 0.18145977512E+02 0.18272298500E+02 0.17895609627E+02
 0.17223848947E+02 0.16567741177E+02 0.16188324262E+02 0.16159471574E+02 0.16341697207E+02
 0.16852875622E+02 0.16320655190E+02 0.15524469807E+02 0.14470590800E+02 0.13224786997E+02
 0.11878690252E+02 0.10520969856E+02 0.92284652049E+01 0.80522359727E+01 0.70347864860E+01
 0.61679990240E+01 0.54440482389E+01 0.48561518870E+01 0.43974205610E+01 0.40600016143E+01
 0.38356370827E+01 0.37173245146E+01 0.37010372041E+01 0.37867069886E+01 0.39783501267E+01
 0.42835816795E+01 0.47126102975E+01 0.52765816982E+01 0.59853573590E+01 0.68453988865E+01
 0.78587025501E+01 0.90230904252E+01 0.10332815975E+02 0.11777458750E+02 0.13279618877E+02
 0.14755214046E+02 0.16091241392E+02 0.17173826737E+02 0.17906496341E+02 0.18247462776E+02
 0.18241185266E+02 0.18013806084E+02 0.17716650685E+02 0.17445012326E+02 0.17189196888E+02
 0.16925929487E+02 0.16219355099E+02 0.15309093895E+02 0.14209482111E+02 0.12968590155E+02
 0.11653409621E+02 0.10333285573E+02 0.90718856833E+01 0.79204213776E+01 0.69092565806E+01
 0.60360221683E+01 0.52968907101E+01 0.46876181739E+01 0.42028605538E+01 0.38356370827E+01
 0.35780221897E+01 0.34228437580E+01 0.33653912658E+01 0.34043271985E+01 0.35417377233E+01
 0.37827650465E+01 0.41351139017E+01 0.46082228293E+01 0.52117094740E+01 0.59531616443E+01
 0.68360506039E+01 0.78587025501E+01 0.90144767645E+01 0.10292058276E+02 0.11674193105E+02
 0.13096963417E+02 0.14479368525E+02 0.15729312039E+02 0.16761675435E+02 0.17512078212E+02
 0.17955640267E+02 0.18115712130E+02 0.18050356732E+02 0.17818761168E+02 0.17448262556E+02
 0.16747409064E+02 0.16026650193E+02 0.15111100521E+02 0.14028301395E+02 0.12823042282E+02
 0.11551557403E+02 0.10284132260E+02 0.90451458506E+01 0.79168296179E+01 0.69093910667E+01
 0.60263815035E+01 0.52682046173E+01 0.46333919732E+01 0.41183864353E+01 0.37173245146E+01
 0.34228437580E+01 0.32278223173E+01 0.31271386151E+01 0.31185957879E+01 0.32028848021E+01
 0.33831276352E+01 0.36645549367E+01 0.40542957107E+01 0.45607195735E+01 0.51918622198E+01
 0.59531616443E+01 0.68453988865E+01 0.78636801633E+01 0.89974293928E+01 0.10230372064E+02
 0.11539321083E+02 0.12891560700E+02 0.14160549677E+02 0.15318969871E+02 0.16282119069E+02
 0.16999908855E+02 0.17447915233E+02 0.17627981390E+02 0.17558618206E+02 0.17260640842E+02
 0.16428241108E+02 0.15796775521E+02 0.14956440937E+02 0.13943345136E+02 0.12803483428E+02
 0.11589911793E+02 0.10360552852E+02 0.91654331822E+01 0.80537410768E+01 0.70429764640E+01
 0.61430150568E+01 0.53588722623E+01 0.46920957306E+01 0.41410376370E+01 0.37010372041E+01
 0.33653912658E+01 0.31271386151E+01 0.29808907467E+01 0.29238442241E+01 0.29557275994E+01
 0.30781949354E+01 0.32944148667E+01 0.36091337264E+01 0.40287614131E+01 0.45607195735E+01
 0.52117094740E+01 0.59853573590E+01 0.68801781617E+01 0.78885193326E+01 0.89963227515E+01
 0.10182895519E+02 0.11420013204E+02 0.12670524000E+02 0.13857013478E+02 0.14921645365E+02
 0.15801370524E+02 0.16451089159E+02 0.16843050201E+02 0.16966571712E+02 0.16824372801E+02
 0.16084396527E+02 0.15598239009E+02 0.14883388926E+02 0.13977808550E+02 0.12945673061E+02
 0.11789475082E+02 0.10609723515E+02 0.94507381931E+01 0.83469327423E+01 0.73231184532E+01
 0.63959866462E+01 0.55758399334E+01 0.48678186863E+01 0.42725395412E+01 0.37867069887E+01
 0.34043271985E+01 0.31185957879E+01 0.29238442241E+01 0.28167159334E+01 0.27962034399E+01
 0.28629434778E+01 0.30186009852E+01 0.32659033010E+01 0.36091337264E+01 0.40542957107E+01
 0.46082228293E+01 0.52765816982E+01 0.60614407483E+01 0.69592843715E+01 0.79599217820E+01
 0.90460837328E+01 0.10193183194E+02 0.11368964905E+02 0.12533302234E+02 0.13638743817E+02
 0.14607479386E+02 0.15399152201E+02 0.15964947013E+02 0.16275095711E+02 0.16314811375E+02
 0.15815344769E+02 0.15521539733E+02 0.14950868574E+02 0.14167901274E+02 0.13221401573E+02
 0.12163922321E+02 0.11046706258E+02 0.99161489174E+01 0.88116744191E+01 0.77647934332E+01
 0.67991046632E+01 0.59308667847E+01 0.51697137208E+01 0.45193355372E+01 0.39783501268E+01
 0.35417377233E+01 0.32028848021E+01 0.29557275994E+01 0.27962034399E+01 0.27225249976E+01
 0.27345112485E+01 0.28327849732E+01 0.30186009852E+01 0.32944148667E+01 0.36645549367E+01
 0.41351139017E+01 0.47126102975E+01 0.54017214614E+01 0.62028836767E+01 0.71104757945E+01
 0.81118148548E+01 0.91867491684E+01 0.10307562222E+02 0.11439138940E+02 0.12539584802E+02
 0.13561545537E+02 0.14454458942E+02 0.15168012393E+02 0.15657000625E+02 0.15863535893E+02
 0.15708137308E+02 0.15572166641E+02 0.15174222538E+02 0.14542297050E+02 0.13717511017E+02
 0.12748145413E+02 0.11684329054E+02 0.10574129738E+02 0.94609477422E+01 0.83818684723E+01
 0.73667545209E+01 0.64379318722E+01 0.56102869396E+01 0.48916521226E+01 0.42835816795E+01
 0.37827650465E+01 0.33831276352E+01 0.30781949354E+01 0.28629434778E+01 0.27345112485E+01
 0.26917785646E+01 0.27345112485E+01 0.28629434778E+01 0.30781949354E+01 0.33831276352E+01
 0.37827650465E+01 0.42835816795E+01 0.48916521226E+01 0.56102869396E+01 0.64379318722E+01
 0.73667545209E+01 0.83818684723E+01 0.94609477422E+01 0.10574129738E+02 0.11684329054E+02
 0.12748145413E+02 0.13717511017E+02 0.14542297050E+02 0.15174222538E+02 0.15572166641E+02
 0.15815344769E+02 0.15863535893E+02 0.15657000625E+02 0.15168012393E+02 0.14454458942E+02
 0.13561545537E+02 0.12539584802E+02 0.11439138940E+02 0.10307562222E+02 0.91867491684E+01
 0.81118148548E+01 0.71104757945E+01 0.62028836767E+01 0.54017214614E+01 0.47126102975E+01
 0.41351139017E+01 0.36645549367E+01 0.32944148667E+01 0.30186009852E+01 0.28327849732E+01
 0.27345112485E+01 0.27225249976E+01 0.27962034399E+01 0.29557275994E+01 0.32028848022E+01
 0.35417377233E+01 0.39783501268E+01 0.45193355372E+01 0.51697137208E+01 0.59308667848E+01
 0.67991046633E+01 0.77647934332E+01 0.88116744191E+01 0.99161489174E+01 0.11046706258E+02
 0.12163922321E+02 0.13221401573E+02 0.14167901274E+02 0.14950868574E+02 0.15521539733E+02
 0.16084396527E+02 0.16314811375E+02 0.16275095711E+02 0.15964947013E+02 0.15399152201E+02
 0.14607479386E+02 0.13638743817E+02 0.12533302234E+02 0.11368964905E+02 0.10193183194E+02
 0.90460837329E+01 0.79599217820E+01 0.69592843715E+01 0.60614407483E+01 0.52765816982E+01
 0.46082228293E+01 0.40542957107E+01 0.36091337264E+01 0.32659033010E+01 0.30186009852E+01
 0.28629434778E+01 0.27962034399E+01 0.28167159334E+01 0.29238442241E+01 0.31185957879E+01
 0.34043271985E+01 0.37867069887E+01 0.42725395412E+01 0.48678186864E+01 0.55758399334E+01
 0.63959866462E+01 0.73231184533E+01 0.83469327423E+01 0.94507381931E+01 0.10609723515E+02
 0.11789475082E+02 0.12945673061E+02 0.13977808550E+02 0.14883388926E+02 0.15598239009E+02
 0.16428241108E+02 0.16824372801E+02 0.16966571712E+02 0.16843050201E+02 0.16451089159E+02
 0.15801370524E+02 0.14921645365E+02 0.13857013478E+02 0.12670524000E+02 0.11420013204E+02
 0.10182895519E+02 0.89963227515E+01 0.78885193326E+01 0.68801781617E+01 0.59853573590E+01
 0.52117094740E+01 0.45607195735E+01 0.40287614131E+01 0.36091337264E+01 0.32944148667E+01
 0.30781949354E+01 0.29557275994E+01 0.29238442241E+01 0.29808907467E+01 0.31271386152E+01
 0.33653912658E+01 0.37010372041E+01 0.41410376370E+01 0.46920957306E+01 0.53588722623E+01
 0.61430150568E+01 0.70429764640E+01 0.80537410768E+01 0.91654331822E+01 0.10360552852E+02
 0.11589911793E+02 0.12803483428E+02 0.13943345136E+02 0.14956440937E+02 0.15796775521E+02
 0.16747409064E+02 0.17260640842E+02 0.17558618206E+02 0.17627981390E+02 0.17447915233E+02
 0.16999908855E+02 0.16282119069E+02 0.15318969871E+02 0.14160549677E+02 0.12891560700E+02
 0.11539321083E+02 0.10230372064E+02 0.89974293928E+01 0.78636801633E+01 0.68453988865E+01
 0.59531616443E+01 0.51918622198E+01 0.45607195735E+01 0.40542957107E+01 0.36645549367E+01
 0.33831276352E+01 0.32028848022E+01 0.31185957879E+01 0.31271386152E+01 0.32278223173E+01
 0.34228437580E+01 0.37173245146E+01 0.41183864353E+01 0.46333919732E+01 0.52682046173E+01
 0.60263815036E+01 0.69093910667E+01 0.79168296179E+01 0.90451458506E+01 0.10284132260E+02
 0.11551557403E+02 0.12823042282E+02 0.14028301395E+02 0.15111100521E+02 0.16026650193E+02
 0.16925929487E+02 0.17448262557E+02 0.17818761168E+02 0.18050356732E+02 0.18115712130E+02
 0.17955640267E+02 0.17512078212E+02 0.16761675435E+02 0.15729312039E+02 0.14479368525E+02
 0.13096963417E+02 0.11674193105E+02 0.10292058276E+02 0.90144767645E+01 0.78587025501E+01
 0.68360506039E+01 0.59531616443E+01 0.52117094740E+01 0.46082228293E+01 0.41351139017E+01
 0.37827650465E+01 0.35417377233E+01 0.34043271985E+01 0.33653912658E+01 0.34228437580E+01
 0.35780221897E+01 0.38356370827E+01 0.42028605538E+01 0.46876181739E+01 0.52968907101E+01
 0.60360221683E+01 0.69092565806E+01 0.79204213776E+01 0.90718856833E+01 0.10333285573E+02
 0.11653409621E+02 0.12968590155E+02 0.14209482111E+02 0.15309093895E+02 0.16219355099E+02
 0.16852875622E+02 0.17189196888E+02 0.17445012326E+02 0.17716650685E+02 0.18013806084E+02
 0.18241185266E+02 0.18247462776E+02 0.17906496341E+02 0.17173826737E+02 0.16091241392E+02
 0.14755214046E+02 0.13279618877E+02 0.11777458750E+02 0.10332815975E+02 0.90230904253E+01
 0.78587025501E+01 0.68453988865E+01 0.59853573590E+01 0.52765816982E+01 0.47126102976E+01
 0.42835816795E+01 0.39783501268E+01 0.37867069887E+01 0.37010372041E+01 0.37173245146E+01
 0.38356370827E+01 0.40600016144E+01 0.43974205611E+01 0.48561518870E+01 0.54440482389E+01
 0.61679990241E+01 0.70347864860E+01 0.80522359727E+01 0.92284652049E+01 0.10520969856E+02
 0.11878690252E+02 0.13224786997E+02 0.14470590800E+02 0.15524469807E+02 0.16320655190E+02
 0.16474622710E+02 0.16341697207E+02 0.16159471575E+02 0.16188324262E+02 0.16567741177E+02
 0.17223848947E+02 0.17895609627E+02 0.18272298500E+02 0.18145977512E+02 0.17476524046E+02
 0.16357238143E+02 0.14941064334E+02 0.13382081989E+02 0.11815887494E+02 0.10332815975E+02
 0.90144767645E+01 0.78636801633E+01 0.68801781617E+01 0.60614407483E+01 0.54017214614E+01
 0.48916521226E+01 0.45193355372E+01 0.42725395412E+01 0.41410376370E+01 0.41183864353E+01
 0.42028605538E+01 0.43974205611E+01 0.47086295070E+01 0.51447900840E+01 0.57142143283E+01
 0.64247896290E+01 0.72852376037E+01 0.83068712993E+01 0.95033134972E+01 0.10823690981E+02
 0.12214233800E+02 0.13581115750E+02 0.14806379221E+02 0.15755298494E+02 0.16318326357E+02
 0.15856736573E+02 0.14942178821E+02 0.13909862466E+02 0.13251253315E+02 0.13340201184E+02
 0.14252348544E+02 0.15702256720E+02 0.17153857314E+02 0.18090883839E+02 0.18250507942E+02
 0.17655455703E+02 0.16497134781E+02 0.15006523159E+02 0.13382082010E+02 0.11777458750E+02
 0.10292058276E+02 0.89974293928E+01 0.78885193326E+01 0.69592843715E+01 0.62028836767E+01
 0.56102869397E+01 0.51697137208E+01 0.48678186864E+01 0.46920957306E+01 0.46333919732E+01
 0.46876181739E+01 0.48561518870E+01 0.51447900840E+01 0.55616397895E+01 0.61150815636E+01
 0.68132712035E+01 0.76658104956E+01 0.86863506542E+01 0.98931837466E+01 0.11236139424E+02
 0.12653559075E+02 0.14034830558E+02 0.15226524624E+02 0.16033230824E+02 0.16268544837E+02
 0.15209541729E+02 0.13285242231E+02 0.11066431387E+02 0.93132449810E+01 0.86366130463E+01
 0.93048158595E+01 0.11225960212E+02 0.13852822365E+02 0.16307121702E+02 0.17863481875E+02
 0.18278105389E+02 0.17713826102E+02 0.16497134886E+02 0.14941064435E+02 0.13279618930E+02
 0.11674193105E+02 0.10230372064E+02 0.89963227515E+01 0.79599217820E+01 0.71104757945E+01
 0.64379318722E+01 0.59308667848E+01 0.55758399334E+01 0.53588722623E+01 0.52682046173E+01
 0.52968907101E+01 0.54440482389E+01 0.57142143283E+01 0.61150815636E+01 0.66549174621E+01
 0.73415884165E+01 0.81843612207E+01 0.91974621553E+01 0.10402077844E+02 0.11759584189E+02
 0.13196832026E+02 0.14590644809E+02 0.15753306873E+02 0.16420151950E+02 0.16298722690E+02
 0.14844066737E+02 0.11867115271E+02 0.83653736025E+01 0.54778589762E+01 0.39940290707E+01
 0.39867210968E+01 0.54546933646E+01 0.84750152603E+01 0.12346298158E+02 0.15746107231E+02
 0.17762887594E+02 0.18278105708E+02 0.17655456068E+02 0.16357238430E+02 0.14755214216E+02
 0.13096963481E+02 0.11539321083E+02 0.10182895519E+02 0.90460837329E+01 0.81118148548E+01
 0.73667545209E+01 0.67991046633E+01 0.63959866462E+01 0.61430150568E+01 0.60263815036E+01
 0.60360221683E+01 0.61679990241E+01 0.64247896290E+01 0.68132712035E+01 0.73415884165E+01
 0.80172303225E+01 0.88483239379E+01 0.98478338350E+01 0.11037314050E+02 0.12397722675E+02
 0.13846821662E+02 0.15254952149E+02 0.16410317119E+02 0.16986614951E+02 0.16573897771E+02
 0.15068483658E+02 0.11217490610E+02 0.65627452824E+01 0.28433746735E+01 0.12990946699E+01
 0.13255977084E+01 0.17061161791E+01 0.31872126477E+01 0.69153129213E+01 0.11770444648E+02
 0.15746107970E+02 0.17863482847E+02 0.18250508805E+02 0.17476524676E+02 0.16091241784E+02
 0.14479368717E+02 0.12891560700E+02 0.11420013204E+02 0.10193183194E+02 0.91867491684E+01
 0.83818684723E+01 0.77647934332E+01 0.73231184533E+01 0.70429764640E+01 0.69093910667E+01
 0.69092565806E+01 0.70347864860E+01 0.72852376037E+01 0.76658104956E+01 0.81843612207E+01
 0.88483239379E+01 0.96647173836E+01 0.10644140173E+02 0.11806030439E+02 0.13152470835E+02
 0.14603063812E+02 0.16027052220E+02 0.17205501308E+02 0.17776426755E+02 0.17231107016E+02
 0.16059622685E+02 0.11727663280E+02 0.61638554143E+01 0.17469332081E+01 0.71258451949E+00
 0.23147681337E+01 0.30603987852E+01 0.18698950613E+01 0.25751118634E+01 0.69153138424E+01
 0.12346299970E+02 0.16307123689E+02 0.18090885490E+02 0.18145978684E+02 0.17173827478E+02
 0.15729312444E+02 0.14160549841E+02 0.12670524000E+02 0.11368964905E+02 0.10307562222E+02
 0.94609477422E+01 0.88116744191E+01 0.83469327423E+01 0.80537410768E+01 0.79168296179E+01
 0.79204213776E+01 0.80522359727E+01 0.83068712993E+01 0.86863506542E+01 0.91974621553E+01
 0.98478338350E+01 0.10644140173E+02 0.11594771429E+02 0.12715633338E+02 0.14033943453E+02
 0.15459198018E+02 0.16893722802E+02 0.18119177889E+02 0.18775401878E+02 0.18306475507E+02
 0.17757706598E+02 0.13509992452E+02 0.74324719846E+01 0.20501486500E+01 0.79734530051E+00
 0.37627742012E+01 0.65384055360E+01 0.49825459064E+01 0.18698948561E+01 0.31872137799E+01
 0.84750179422E+01 0.13852825490E+02 0.17153859968E+02 0.18272300397E+02 0.17906497558E+02
 0.16761676138E+02 0.15318970210E+02 0.13857013580E+02 0.12533302234E+02 0.11439138940E+02
 0.10574129738E+02 0.99161489174E+01 0.94507381931E+01 0.91654331822E+01 0.90451458506E+01
 0.90718856833E+01 0.92284652049E+01 0.95033134972E+01 0.98931837466E+01 0.10402077844E+02
 0.11037314050E+02 0.11806030439E+02 0.12715633338E+02 0.13778735553E+02 0.15018645616E+02
 0.16407837509E+02 0.17832908083E+02 0.19106902446E+02 0.19906767532E+02 0.19698385665E+02
 0.19857793298E+02 0.16286627468E+02 0.10393268717E+02 0.39691495504E+01 0.85008098257E+00
 0.29580772115E+01 0.64505609446E+01 0.65384054278E+01 0.30603981206E+01 0.17061167092E+01
 0.54546961424E+01 0.11225964097E+02 0.15702260306E+02 0.17895612300E+02 0.18247464537E+02
 0.17512079271E+02 0.16282119630E+02 0.14921645591E+02 0.13638743817E+02 0.12539584802E+02
 0.11684329054E+02 0.11046706258E+02 0.10609723515E+02 0.10360552852E+02 0.10284132260E+02
 0.10333285517E+02 0.10520969756E+02 0.10823690837E+02 0.11236139250E+02 0.11759584008E+02
 0.12397722513E+02 0.13152470718E+02 0.14033943453E+02 0.15018645616E+02 0.16153585769E+02
 0.17469746901E+02 0.18826239581E+02 0.20118220118E+02 0.21061864006E+02 0.21202954485E+02
 0.21940702621E+02 0.19424232652E+02 0.14547212037E+02 0.79686172259E+01 0.24283965902E+01
 0.11022184491E+01 0.29580777803E+01 0.37627748219E+01 0.23147681624E+01 0.13255980785E+01
 0.39867234146E+01 0.93048197756E+01 0.14252352602E+02 0.17223852198E+02 0.18241187511E+02
 0.17955641674E+02 0.16999909652E+02 0.15801370898E+02 0.14607479491E+02 0.13561545537E+02
 0.12748145413E+02 0.12163922321E+02 0.11789475082E+02 0.11589911785E+02 0.11551557359E+02
 0.11653409512E+02 0.11878690055E+02 0.12214233506E+02 0.12653558695E+02 0.13196831592E+02
 0.13846821221E+02 0.14603063418E+02 0.15459197716E+02 0.16407837321E+02 0.17469746901E+02
 0.18614942653E+02 0.19873928386E+02 0.21120609894E+02 0.22147656750E+02 0.22606776579E+02
 0.23667546398E+02 0.22225206752E+02 0.18839177074E+02 0.13395511073E+02 0.70913003842E+01
 0.24283960944E+01 0.85008107336E+00 0.79734586074E+00 0.71258494362E+00 0.12990952301E+01
 0.39940308463E+01 0.86366163292E+01 0.13340205021E+02 0.16567744554E+02 0.18013808582E+02
 0.18115713782E+02 0.17447916225E+02 0.16451089673E+02 0.15399152390E+02 0.14454458942E+02
 0.13717511017E+02 0.13221401573E+02 0.12945673061E+02 0.12803483442E+02 0.12823042250E+02
 0.12968590028E+02 0.13224786728E+02 0.13581115309E+02 0.14034829944E+02 0.14590644054E+02
 0.15254951322E+02 0.16027051410E+02 0.16893722098E+02 0.17832907547E+02 0.18826239237E+02
 0.19873928214E+02 0.21015766298E+02 0.22115406017E+02 0.23121400845E+02 0.23773122676E+02
 0.24893526050E+02 0.24260682204E+02 0.22277473698E+02 0.18576706974E+02 0.13395510007E+02
 0.79686152596E+01 0.39691475878E+01 0.20501473201E+01 0.17469324269E+01 0.28433744902E+01
 0.54778598472E+01 0.93132471572E+01 0.13251256297E+02 0.16188327220E+02 0.17716653082E+02
 0.18050358434E+02 0.17627982481E+02 0.16843050813E+02 0.15964947278E+02 0.15168012393E+02
 0.14542297050E+02 0.14167901274E+02 0.13977808611E+02 0.13943345212E+02 0.14028301433E+02
 0.14209482035E+02 0.14470590530E+02 0.14806378686E+02 0.15226523789E+02 0.15753305756E+02
 0.16410315804E+02 0.17205499935E+02 0.18119176612E+02 0.19106901391E+02 0.20118219352E+02
 0.21120609416E+02 0.22115405776E+02 0.23101938184E+02 0.23997736864E+02 0.24672148367E+02
 0.25651693053E+02 0.25460565162E+02 0.24447540380E+02 0.22277473067E+02 0.18839175389E+02
 0.14547209157E+02 0.10393265105E+02 0.74324684714E+01 0.61638526079E+01 0.65627434984E+01
 0.83653730731E+01 0.11066432167E+02 0.13909864223E+02 0.16159473696E+02 0.17445014280E+02
 0.17818762694E+02 0.17558619261E+02 0.16966572352E+02 0.16275096021E+02 0.15657000625E+02
 0.15174222538E+02 0.14950868574E+02 0.14883389051E+02 0.14956441120E+02 0.15111100701E+02
 0.15309093973E+02 0.15524469660E+02 0.15755297990E+02 0.16033229859E+02 0.16420150495E+02
 0.16986613083E+02 0.17776424666E+02 0.18775399825E+02 0.19906765751E+02 0.21061862641E+02
 0.22147655829E+02 0.23121400309E+02 0.23997736608E+02 0.24764856080E+02 0.25357618865E+02
 0.26070940220E+02 0.25986320537E+02 0.25460564907E+02 0.24260681413E+02 0.22225205077E+02
 0.19424229848E+02 0.16286623646E+02 0.13509988172E+02 0.11727659298E+02 0.11217487535E+02
 0.11867113441E+02 0.13285241696E+02 0.14942179345E+02 0.16341698350E+02 0.17189198198E+02
 0.17448263727E+02 0.17260641734E+02 0.16824373389E+02 0.16314811686E+02 0.15863535993E+02
 0.15572166641E+02 0.15521539733E+02 0.15598239210E+02 0.15796775845E+02 0.16026650586E+02
 0.16219355457E+02 0.16320655347E+02 0.16318326104E+02 0.16268543967E+02 0.16298721072E+02
 0.16573895427E+02 0.17231104158E+02 0.18306472508E+02 0.19698382936E+02 0.21202952319E+02
 0.22606775075E+02 0.23773121765E+02 0.24672147894E+02 0.25357618668E+02 0.25829249256E+02
 0.25855889230E+02 0.25559951855E+02 0.24998221589E+02 0.24236385256E+02 0.23188175241E+02
 0.21835025264E+02 0.20270677608E+02 0.18704236275E+02 0.17391233111E+02 0.16519974253E+02
 0.16129652533E+02 0.16111414077E+02 0.16276011066E+02 0.16438468548E+02 0.16480553295E+02
 0.16371808115E+02 0.16151215042E+02 0.15891823830E+02 0.15672362880E+02 0.15575951883E+02
 0.15655785906E+02 0.15948367776E+02 0.16372218496E+02 0.16825564631E+02 0.17179346295E+02
 0.17273182744E+02 0.16951823512E+02 0.16148246626E+02 0.14977795076E+02 0.13764042648E+02