unknown system                          
   1.00000000000000     
     4.351552    0.010650    0.000000
    -2.097014    3.812957    0.000000
     0.000000    0.000000    4.406008
   Ga
     4
Direct
  0.156043  0.843957  0.916654
  0.343957  0.656043  0.416654
  0.843957  0.156043  0.083346
  0.656043  0.343957  0.583346
 
   40   40   40
 0.26383880393E+02 0.26267485568E+02 0.25814644430E+02 0.24866671566E+02 0.23429295632E+02
 0.21670553215E+02 0.19849446271E+02 0.18224490379E+02 0.16981728145E+02 0.16203238386E+02
 0.15873449299E+02 0.15905896820E+02 0.16172892813E+02 0.16530035111E+02 0.16837224835E+02
 0.16981144961E+02 0.16900374943E+02 0.16607567902E+02 0.16198697057E+02 0.15840711895E+02
 0.15707653957E+02 0.15840711895E+02 0.16198697057E+02 0.16607567902E+02 0.16900374943E+02
 0.16981144961E+02 0.16837224835E+02 0.16530035111E+02 0.16172892813E+02 0.15905896820E+02
 0.15873449299E+02 0.16203238386E+02 0.16981728145E+02 0.18224490379E+02 0.19849446271E+02
 0.21670553215E+02 0.23429295632E+02 0.24866671566E+02 0.25814644430E+02 0.26267485568E+02
 0.26267485633E+02 0.26002505341E+02 0.25544361692E+02 0.24854977487E+02 0.23825147617E+02
 0.22484011804E+02 0.20979959684E+02 0.19511730422E+02 0.18254488729E+02 0.17311989251E+02
 0.16705833151E+02 0.16392701435E+02 0.16291488771E+02 0.16306473716E+02 0.16343308924E+02
 0.16322622418E+02 0.16196425500E+02 0.15966726564E+02 0.15699058353E+02 0.15521153924E+02
 0.15571737193E+02 0.15886759320E+02 0.16431568307E+02 0.17006998136E+02 0.17399619857E+02
 0.17468114864E+02 0.17171477208E+02 0.16570726588E+02 0.15808496985E+02 0.15076311236E+02
 0.14579370392E+02 0.14504175874E+02 0.14988547879E+02 0.16091275174E+02 0.17763058516E+02
 0.19829979284E+02 0.22007586086E+02 0.23958546267E+02 0.25387268903E+02 0.26140252974E+02
 0.25814644755E+02 0.25544361855E+02 0.24895923176E+02 0.24160080694E+02 0.23316576949E+02
 0.22281384610E+02 0.21081961281E+02 0.19828422114E+02 0.18654962845E+02 0.17665923496E+02
 0.16908372179E+02 0.16374166909E+02 0.16019381600E+02 0.15785616944E+02 0.15614771406E+02
 0.15458430081E+02 0.15287542979E+02 0.15105392968E+02 0.14960444791E+02 0.14950668615E+02
 0.15173946211E+02 0.15656639696E+02 0.16382953340E+02 0.17149430391E+02 0.17694964838E+02
 0.17820556845E+02 0.17436171343E+02 0.16580146025E+02 0.15408573851E+02 0.14160429351E+02
 0.13109519608E+02 0.12514996233E+02 0.12578200033E+02 0.13407650347E+02 0.14991141488E+02
 0.17178042103E+02 0.19683396459E+02 0.22129014543E+02 0.24126793503E+02 0.25387269206E+02
 0.24866672382E+02 0.24854978020E+02 0.24160080875E+02 0.23175186951E+02 0.22235019437E+02
 0.21300372315E+02 0.20298729405E+02 0.19242582262E+02 0.18200183296E+02 0.17250288994E+02
 0.16446274156E+02 0.15803144127E+02 0.15305074512E+02 0.14921568146E+02 0.14621324903E+02
 0.14380492140E+02 0.14188566153E+02 0.14056102016E+02 0.14024204611E+02 0.14167945561E+02
 0.14542248723E+02 0.15167854101E+02 0.16052311659E+02 0.17021430102E+02 0.17775615563E+02
 0.18053399827E+02 0.17697549603E+02 0.16696592061E+02 0.15192645539E+02 0.13453741887E+02
 0.11818454385E+02 0.10627934486E+02 0.10162070827E+02 0.10591097497E+02 0.11945331509E+02
 0.14101248866E+02 0.16785858798E+02 0.19608478492E+02 0.22129015076E+02 0.23958547103E+02
 0.23429297088E+02 0.23825148712E+02 0.23316577508E+02 0.22235019555E+02 0.21015618347E+02
 0.19938255421E+02 0.18954969585E+02 0.17999856933E+02 0.17067932951E+02 0.16191812666E+02
 0.15409408853E+02 0.14742226314E+02 0.14191112526E+02 0.13744480996E+02 0.13389447453E+02
 0.13119649900E+02 0.12939583186E+02 0.12868550985E+02 0.12946036160E+02 0.13221708567E+02
 0.13717729330E+02 0.14454562066E+02 0.15456287226E+02 0.16614310293E+02 0.17615941106E+02
 0.18143893090E+02 0.17964591568E+02 0.16991825806E+02 0.15319297024E+02 0.13210870065E+02
 0.11048612545E+02 0.92518604100E+01 0.81899942959E+01 0.81115000624E+01 0.91018647261E+01
 0.11070460095E+02 0.13761233336E+02 0.16785859375E+02 0.19683397593E+02 0.22007587559E+02
 0.21670555294E+02 0.22484013527E+02 0.22281385693E+02 0.21300372735E+02 0.19938255452E+02
 0.18614777134E+02 0.17469622163E+02 0.16466329741E+02 0.15559878497E+02 0.14731859635E+02
 0.13989187831E+02 0.13343069557E+02 0.12797595883E+02 0.12350169597E+02 0.11998281551E+02
 0.11746133812E+02 0.11608286638E+02 0.11611327654E+02 0.11790048694E+02 0.12164466671E+02
 0.12748626215E+02 0.13561929157E+02 0.14632619609E+02 0.15932413423E+02 0.17184228231E+02
 0.18033967512E+02 0.18176575179E+02 0.17436635036E+02 0.15826830188E+02 0.13564544232E+02
 0.11036336653E+02 0.87161138497E+01 0.70597407061E+01 0.64073105093E+01 0.69184536181E+01
 0.85499925092E+01 0.11070460518E+02 0.14101249879E+02 0.17178043718E+02 0.19829981311E+02
 0.19849448782E+02 0.20979961933E+02 0.21081962896E+02 0.20298730235E+02 0.18954969789E+02
 0.17469622163E+02 0.16153477711E+02 0.15018600762E+02 0.14033983925E+02 0.13179934623E+02
 0.12444192065E+02 0.11818575347E+02 0.11298806714E+02 0.10881361730E+02 0.10566089126E+02
 0.10360943671E+02 0.10284720645E+02 0.10361210491E+02 0.10610424500E+02 0.11047420985E+02
 0.11685024669E+02 0.12540224196E+02 0.13639285644E+02 0.15003811445E+02 0.16460865828E+02
 0.17651533279E+02 0.18219273172E+02 0.17901632447E+02 0.16609669441E+02 0.14473675488E+02
 0.11834972703E+02 0.91784946962E+01 0.70222315179E+01 0.57971055576E+01 0.57536807642E+01
 0.69184537877E+01 0.91018653186E+01 0.11945332705E+02 0.14991143330E+02 0.17763060859E+02
 0.18224493028E+02 0.19511732958E+02 0.19828424123E+02 0.19242583488E+02 0.17999857398E+02
 0.16466329774E+02 0.15018600762E+02 0.13778723194E+02 0.12715679721E+02 0.11806140582E+02
 0.11037474637E+02 0.10402272648E+02 0.98934088779E+01 0.95035825170E+01 0.92288024591E+01
 0.90723139484E+01 0.90456766164E+01 0.91660640947E+01 0.94514560968E+01 0.99169334577E+01
 0.10574953883E+02 0.11439967036E+02 0.12534088889E+02 0.13888129866E+02 0.15458472105E+02
 0.16942982797E+02 0.17965260891E+02 0.18195966953E+02 0.17443312351E+02 0.15723616607E+02
 0.13285160257E+02 0.10568584547E+02 0.81082894826E+01 0.64030482998E+01 0.57971054537E+01
 0.64073105758E+01 0.81115005512E+01 0.10591098594E+02 0.13407652121E+02 0.16091277525E+02
 0.16981730629E+02 0.18254491263E+02 0.18654965019E+02 0.18200184789E+02 0.17067933668E+02
 0.15559878640E+02 0.14033983925E+02 0.12715679721E+02 0.11594837272E+02 0.10644232055E+02
 0.98479450851E+01 0.91975807636E+01 0.86864726734E+01 0.83070094308E+01 0.80524180356E+01
 0.79206807501E+01 0.79171943524E+01 0.80542276224E+01 0.83475454747E+01 0.88124075810E+01
 0.94617855941E+01 0.10308476422E+02 0.11369911947E+02 0.12671445966E+02 0.14234883277E+02
 0.15903701450E+02 0.17323087917E+02 0.18130686798E+02 0.18051487629E+02 0.16983118947E+02
 0.15048572395E+02 0.12591277906E+02 0.10104009663E+02 0.81082891265E+01 0.70222310569E+01
 0.70597404185E+01 0.81899944339E+01 0.10162071576E+02 0.12578201475E+02 0.14988549954E+02
 0.16203240469E+02 0.17311991525E+02 0.17665925589E+02 0.17250290567E+02 0.16191813546E+02
 0.14731859903E+02 0.13179934624E+02 0.11806140582E+02 0.10644232055E+02 0.96647887070E+01
 0.88483689661E+01 0.81843722427E+01 0.76657867198E+01 0.72851933386E+01 0.70347524872E+01
 0.69092738962E+01 0.69095014867E+01 0.70432147769E+01 0.73235090016E+01 0.77653494770E+01
 0.83825909540E+01 0.91876231659E+01 0.10194173909E+02 0.11421065100E+02 0.12892601297E+02
 0.14594079840E+02 0.16276226060E+02 0.17583105264E+02 0.18191865441E+02 0.17900264410E+02
 0.16698419201E+02 0.14796765756E+02 0.12591277391E+02 0.10568583661E+02 0.91784936892E+01
 0.87161130113E+01 0.92518600017E+01 0.10627934697E+02 0.12514997151E+02 0.14504177462E+02
 0.15873450828E+02 0.16705834985E+02 0.16908373992E+02 0.16446275628E+02 0.15409409769E+02
 0.13989188183E+02 0.12444192087E+02 0.11037474637E+02 0.98479450852E+01 0.88483689662E+01
 0.80171982161E+01 0.73414725052E+01 0.68130739420E+01 0.64245284009E+01 0.61677077424E+01
 0.60357472428E+01 0.60261744774E+01 0.61429255314E+01 0.63960576432E+01 0.67993698574E+01
 0.73672350859E+01 0.81125144676E+01 0.90469829544E+01 0.10183948841E+02 0.11540459109E+02
 0.13134915712E+02 0.14897593033E+02 0.16538766834E+02 0.17729463131E+02 0.18203939702E+02
 0.17837558801E+02 0.16698418702E+02 0.15048571358E+02 0.13285158802E+02 0.11834971078E+02
 0.11036335163E+02 0.11048611472E+02 0.11818453935E+02 0.13109519879E+02 0.14579371364E+02
 0.15905897727E+02 0.16392702734E+02 0.16374168319E+02 0.15803145358E+02 0.14742227146E+02
 0.13343069924E+02 0.11818575391E+02 0.10402272648E+02 0.91975807638E+01 0.81843722428E+01
 0.73414725053E+01 0.66546652796E+01 0.61146968125E+01 0.57137174388E+01 0.54434767318E+01
 0.52962953578E+01 0.52676434126E+01 0.53584048515E+01 0.55755236540E+01 0.59307533867E+01
 0.64380630746E+01 0.71108767358E+01 0.79605935747E+01 0.89972371402E+01 0.10231470986E+02
 0.11675393556E+02 0.13336167575E+02 0.15098033838E+02 0.16673266258E+02 0.17776053089E+02
 0.18203939378E+02 0.17900263580E+02 0.16983117543E+02 0.15723614714E+02 0.14473673336E+02
 0.13564542130E+02 0.13210868321E+02 0.13453740741E+02 0.14160428927E+02 0.15076311536E+02
 0.16172893099E+02 0.16291489513E+02 0.16019382558E+02 0.15305075428E+02 0.14191113191E+02
 0.12797596203E+02 0.11298806764E+02 0.98934088782E+01 0.86864726737E+01 0.76657867200E+01
 0.68130739421E+01 0.61146968126E+01 0.55610701608E+01 0.51440577072E+01 0.48552976169E+01
 0.46866967978E+01 0.46324660574E+01 0.46912309710E+01 0.48670814188E+01 0.51691688037E+01
 0.56099935520E+01 0.62028880161E+01 0.69596106033E+01 0.78891618047E+01 0.89983490637E+01
 0.10293184570E+02 0.11778695816E+02 0.13449046487E+02 0.15167843796E+02 0.16673266143E+02
 0.17729462717E+02 0.18191864542E+02 0.18051486139E+02 0.17443310303E+02 0.16609667018E+02
 0.15826827681E+02 0.15319294756E+02 0.15192643784E+02 0.15408572778E+02 0.15808496632E+02
 0.16530034847E+02 0.16306473945E+02 0.15785617462E+02 0.14921568731E+02 0.13744481455E+02
 0.12350169828E+02 0.10881361766E+02 0.95035825174E+01 0.83070094311E+01 0.72851933389E+01
 0.64245284011E+01 0.57137174390E+01 0.51440577073E+01 0.47076836462E+01 0.43963039913E+01
 0.42016312659E+01 0.41171106014E+01 0.41397847330E+01 0.42713807701E+01 0.45183434597E+01
 0.48908981306E+01 0.54012692261E+01 0.60613365961E+01 0.68804413513E+01 0.78642961694E+01
 0.90153953387E+01 0.10333954108E+02 0.11817136410E+02 0.13449046482E+02 0.15098033758E+02
 0.16538766527E+02 0.17583104545E+02 0.18130685526E+02 0.18195965096E+02 0.17901630116E+02
 0.17436632470E+02 0.16991823310E+02 0.16696589927E+02 0.16580144466E+02 0.16570725694E+02
 0.16837224180E+02 0.16343308749E+02 0.15614771556E+02 0.14621325192E+02 0.13389447713E+02
 0.11998281684E+02 0.10566089142E+02 0.92288024595E+01 0.80524180359E+01 0.70347524875E+01
 0.61677077427E+01 0.54434767321E+01 0.48552976171E+01 0.43963039913E+01 0.40586653978E+01
 0.38341406726E+01 0.37157366570E+01 0.36994302143E+01 0.37851548823E+01 0.39769292312E+01
 0.42823701674E+01 0.47116837637E+01 0.52760045940E+01 0.59851725794E+01 0.68456185399E+01
 0.78593021460E+01 0.90240075841E+01 0.10333954108E+02 0.11778695816E+02 0.13336167566E+02
 0.14897592913E+02 0.16276225661E+02 0.17323087079E+02 0.17965259520E+02 0.18219271293E+02
 0.18176572946E+02 0.17964589228E+02 0.17697547435E+02 0.17436169580E+02 0.17171475988E+02
 0.16981144142E+02 0.16322622011E+02 0.15458429984E+02 0.14380492211E+02 0.13119650006E+02
 0.11746133867E+02 0.10360943673E+02 0.90723139488E+01 0.79206807505E+01 0.69092738966E+01
 0.60357472431E+01 0.52962953580E+01 0.46866967979E+01 0.42016312661E+01 0.38341406726E+01
 0.35763174623E+01 0.34210005078E+01 0.33634840160E+01 0.34024322264E+01 0.35399332770E+01
 0.37811321109E+01 0.41337343225E+01 0.46071732563E+01 0.52110519740E+01 0.59529332926E+01
 0.68362544869E+01 0.78593021461E+01 0.90153953388E+01 0.10293184570E+02 0.11675393556E+02
 0.13134915709E+02 0.14594079735E+02 0.15903701085E+02 0.16942982041E+02 0.17651532077E+02
 0.18033965920E+02 0.18143891267E+02 0.18053397992E+02 0.17820555218E+02 0.17468113606E+02
 0.16900374211E+02 0.16196425064E+02 0.15287542788E+02 0.14188566115E+02 0.12939583204E+02
 0.11608286649E+02 0.10284720646E+02 0.90456766169E+01 0.79171943529E+01 0.69095014871E+01
 0.60261744778E+01 0.52676434129E+01 0.46324660576E+01 0.41171106016E+01 0.37157366571E+01
 0.34210005078E+01 0.32257929287E+01 0.31249988719E+01 0.31164239930E+01 0.32007606884E+01
 0.33811330410E+01 0.36627737498E+01 0.40528107894E+01 0.45596058437E+01 0.51911768480E+01
 0.59529332926E+01 0.68456185400E+01 0.78642961696E+01 0.89983490639E+01 0.10231470986E+02
 0.11540459110E+02 0.12892601297E+02 0.14234883228E+02 0.15458471872E+02 0.16460865305E+02
 0.17184227388E+02 0.17615940002E+02 0.17775614331E+02 0.17694963643E+02 0.17399618848E+02
 0.16607567443E+02 0.15966726267E+02 0.15105392821E+02 0.14056101970E+02 0.12868550981E+02
 0.11611327654E+02 0.10361210491E+02 0.91660640952E+01 0.80542276229E+01 0.70432147774E+01
 0.61429255318E+01 0.53584048518E+01 0.46912309713E+01 0.41397847332E+01 0.36994302145E+01
 0.33634840161E+01 0.31249988719E+01 0.29785944904E+01 0.29214711582E+01 0.29533588005E+01
 0.30759125904E+01 0.32923027832E+01 0.36072765347E+01 0.40272406249E+01 0.45596058438E+01
 0.52110519741E+01 0.59851725795E+01 0.68804413515E+01 0.78891618049E+01 0.89972371405E+01
 0.10183948841E+02 0.11421065100E+02 0.12671445966E+02 0.13888129865E+02 0.15003811367E+02
 0.15932413184E+02 0.16614309868E+02 0.17021429531E+02 0.17149429763E+02 0.17006997552E+02
 0.16198696905E+02 0.15699058255E+02 0.14960444748E+02 0.14024204603E+02 0.12946036160E+02
 0.11790048694E+02 0.10610424501E+02 0.94514560973E+01 0.83475454753E+01 0.73235090021E+01
 0.63960576436E+01 0.55755236543E+01 0.48670814191E+01 0.42713807703E+01 0.37851548825E+01
 0.34024322265E+01 0.31164239931E+01 0.29214711582E+01 0.28142218872E+01 0.27936704046E+01
 0.28604539765E+01 0.30162382730E+01 0.32637515872E+01 0.36072765347E+01 0.40528107895E+01
 0.46071732564E+01 0.52760045942E+01 0.60613365964E+01 0.69596106036E+01 0.79605935750E+01
 0.90469829548E+01 0.10194173910E+02 0.11369911947E+02 0.12534088889E+02 0.13639285644E+02
 0.14632619609E+02 0.15456287191E+02 0.16052311558E+02 0.16382953181E+02 0.16431568130E+02
 0.15840711895E+02 0.15521153924E+02 0.14950668616E+02 0.14167945561E+02 0.13221708567E+02
 0.12164466671E+02 0.11047420985E+02 0.99169334582E+01 0.88124075815E+01 0.77653494775E+01
 0.67993698578E+01 0.59307533871E+01 0.51691688041E+01 0.45183434600E+01 0.39769292314E+01
 0.35399332771E+01 0.32007606885E+01 0.29533588006E+01 0.27936704046E+01 0.27199101391E+01
 0.27318973448E+01 0.28302549621E+01 0.30162382730E+01 0.32923027833E+01 0.36627737499E+01
 0.41337343226E+01 0.47116837639E+01 0.54012692263E+01 0.62028880164E+01 0.71108767362E+01
 0.81125144680E+01 0.91876231663E+01 0.10308476422E+02 0.11439967037E+02 0.12540224197E+02
 0.13561929158E+02 0.14454562066E+02 0.15167854101E+02 0.15656639696E+02 0.15886759321E+02
 0.15707653957E+02 0.15571737194E+02 0.15173946212E+02 0.14542248723E+02 0.13717729330E+02
 0.12748626216E+02 0.11685024669E+02 0.10574953884E+02 0.94617855946E+01 0.83825909544E+01
 0.73672350863E+01 0.64380630750E+01 0.56099935523E+01 0.48908981309E+01 0.42823701676E+01
 0.37811321111E+01 0.33811330411E+01 0.30759125905E+01 0.28604539765E+01 0.27318973448E+01
 0.26891232289E+01 0.27318973448E+01 0.28604539765E+01 0.30759125905E+01 0.33811330411E+01
 0.37811321111E+01 0.42823701676E+01 0.48908981309E+01 0.56099935524E+01 0.64380630750E+01
 0.73672350863E+01 0.83825909544E+01 0.94617855946E+01 0.10574953884E+02 0.11685024669E+02
 0.12748626216E+02 0.13717729330E+02 0.14542248723E+02 0.15173946212E+02 0.15571737194E+02
 0.15840711895E+02 0.15886759321E+02 0.15656639696E+02 0.15167854101E+02 0.14454562066E+02
 0.13561929158E+02 0.12540224197E+02 0.11439967037E+02 0.10308476422E+02 0.91876231663E+01
 0.81125144680E+01 0.71108767362E+01 0.62028880164E+01 0.54012692263E+01 0.47116837639E+01
 0.41337343226E+01 0.36627737499E+01 0.32923027833E+01 0.30162382730E+01 0.28302549621E+01
 0.27318973448E+01 0.27199101391E+01 0.27936704046E+01 0.29533588006E+01 0.32007606885E+01
 0.35399332771E+01 0.39769292314E+01 0.45183434600E+01 0.51691688041E+01 0.59307533871E+01
 0.67993698578E+01 0.77653494775E+01 0.88124075815E+01 0.99169334582E+01 0.11047420985E+02
 0.12164466671E+02 0.13221708567E+02 0.14167945561E+02 0.14950668616E+02 0.15521153924E+02
 0.16198696905E+02 0.16431568131E+02 0.16382953181E+02 0.16052311558E+02 0.15456287191E+02
 0.14632619609E+02 0.13639285645E+02 0.12534088889E+02 0.11369911947E+02 0.10194173910E+02
 0.90469829548E+01 0.79605935750E+01 0.69596106036E+01 0.60613365964E+01 0.52760045942E+01
 0.46071732564E+01 0.40528107895E+01 0.36072765348E+01 0.32637515873E+01 0.30162382730E+01
 0.28604539765E+01 0.27936704046E+01 0.28142218872E+01 0.29214711582E+01 0.31164239931E+01
 0.34024322266E+01 0.37851548825E+01 0.42713807703E+01 0.48670814192E+01 0.55755236544E+01
 0.63960576437E+01 0.73235090021E+01 0.83475454753E+01 0.94514560973E+01 0.10610424501E+02
 0.11790048694E+02 0.12946036160E+02 0.14024204603E+02 0.14960444748E+02 0.15699058255E+02
 0.16607567443E+02 0.17006997552E+02 0.17149429763E+02 0.17021429531E+02 0.16614309868E+02
 0.15932413184E+02 0.15003811367E+02 0.13888129865E+02 0.12671445966E+02 0.11421065100E+02
 0.10183948842E+02 0.89972371405E+01 0.78891618050E+01 0.68804413515E+01 0.59851725796E+01
 0.52110519741E+01 0.45596058438E+01 0.40272406249E+01 0.36072765347E+01 0.32923027832E+01
 0.30759125904E+01 0.29533588006E+01 0.29214711582E+01 0.29785944905E+01 0.31249988720E+01
 0.33634840161E+01 0.36994302145E+01 0.41397847332E+01 0.46912309713E+01 0.53584048519E+01
 0.61429255318E+01 0.70432147774E+01 0.80542276230E+01 0.91660640952E+01 0.10361210491E+02
 0.11611327654E+02 0.12868550981E+02 0.14056101970E+02 0.15105392821E+02 0.15966726267E+02
 0.16900374211E+02 0.17399618848E+02 0.17694963643E+02 0.17775614331E+02 0.17615940002E+02
 0.17184227388E+02 0.16460865305E+02 0.15458471872E+02 0.14234883228E+02 0.12892601297E+02
 0.11540459110E+02 0.10231470986E+02 0.89983490640E+01 0.78642961696E+01 0.68456185400E+01
 0.59529332926E+01 0.51911768480E+01 0.45596058437E+01 0.40528107895E+01 0.36627737498E+01
 0.33811330410E+01 0.32007606884E+01 0.31164239930E+01 0.31249988719E+01 0.32257929288E+01
 0.34210005078E+01 0.37157366571E+01 0.41171106016E+01 0.46324660576E+01 0.52676434129E+01
 0.60261744778E+01 0.69095014871E+01 0.79171943529E+01 0.90456766169E+01 0.10284720646E+02
 0.11608286649E+02 0.12939583204E+02 0.14188566115E+02 0.15287542788E+02 0.16196425064E+02
 0.16981144143E+02 0.17468113606E+02 0.17820555218E+02 0.18053397993E+02 0.18143891267E+02
 0.18033965920E+02 0.17651532077E+02 0.16942982041E+02 0.15903701085E+02 0.14594079735E+02
 0.13134915709E+02 0.11675393556E+02 0.10293184570E+02 0.90153953388E+01 0.78593021461E+01
 0.68362544869E+01 0.59529332926E+01 0.52110519740E+01 0.46071732563E+01 0.41337343225E+01
 0.37811321109E+01 0.35399332770E+01 0.34024322264E+01 0.33634840160E+01 0.34210005078E+01
 0.35763174623E+01 0.38341406727E+01 0.42016312661E+01 0.46866967980E+01 0.52962953580E+01
 0.60357472432E+01 0.69092738966E+01 0.79206807505E+01 0.90723139488E+01 0.10360943673E+02
 0.11746133867E+02 0.13119650006E+02 0.14380492211E+02 0.15458429984E+02 0.16322622011E+02
 0.16837224180E+02 0.17171475988E+02 0.17436169580E+02 0.17697547435E+02 0.17964589228E+02
 0.18176572946E+02 0.18219271293E+02 0.17965259520E+02 0.17323087079E+02 0.16276225661E+02
 0.14897592913E+02 0.13336167566E+02 0.11778695816E+02 0.10333954108E+02 0.90240075841E+01
 0.78593021460E+01 0.68456185399E+01 0.59851725794E+01 0.52760045941E+01 0.47116837638E+01
 0.42823701674E+01 0.39769292312E+01 0.37851548823E+01 0.36994302144E+01 0.37157366570E+01
 0.38341406726E+01 0.40586653978E+01 0.43963039914E+01 0.48552976171E+01 0.54434767321E+01
 0.61677077427E+01 0.70347524875E+01 0.80524180359E+01 0.92288024595E+01 0.10566089142E+02
 0.11998281684E+02 0.13389447713E+02 0.14621325192E+02 0.15614771556E+02 0.16343308749E+02
 0.16530034847E+02 0.16570725694E+02 0.16580144466E+02 0.16696589927E+02 0.16991823310E+02
 0.17436632470E+02 0.17901630116E+02 0.18195965096E+02 0.18130685526E+02 0.17583104545E+02
 0.16538766527E+02 0.15098033758E+02 0.13449046482E+02 0.11817136410E+02 0.10333954108E+02
 0.90153953387E+01 0.78642961695E+01 0.68804413513E+01 0.60613365962E+01 0.54012692261E+01
 0.48908981306E+01 0.45183434597E+01 0.42713807701E+01 0.41397847330E+01 0.41171106015E+01
 0.42016312660E+01 0.43963039913E+01 0.47076836462E+01 0.51440577073E+01 0.57137174390E+01
 0.64245284011E+01 0.72851933389E+01 0.83070094311E+01 0.95035825174E+01 0.10881361766E+02
 0.12350169828E+02 0.13744481455E+02 0.14921568731E+02 0.15785617462E+02 0.16306473945E+02
 0.16172893099E+02 0.15808496632E+02 0.15408572778E+02 0.15192643784E+02 0.15319294756E+02
 0.15826827681E+02 0.16609667018E+02 0.17443310303E+02 0.18051486139E+02 0.18191864542E+02
 0.17729462717E+02 0.16673266143E+02 0.15167843796E+02 0.13449046487E+02 0.11778695816E+02
 0.10293184570E+02 0.89983490638E+01 0.78891618047E+01 0.69596106033E+01 0.62028880162E+01
 0.56099935520E+01 0.51691688038E+01 0.48670814189E+01 0.46912309711E+01 0.46324660574E+01
 0.46866967978E+01 0.48552976169E+01 0.51440577072E+01 0.55610701608E+01 0.61146968126E+01
 0.68130739421E+01 0.76657867200E+01 0.86864726737E+01 0.98934088782E+01 0.11298806764E+02
 0.12797596203E+02 0.14191113191E+02 0.15305075428E+02 0.16019382558E+02 0.16291489513E+02
 0.15905897727E+02 0.15076311536E+02 0.14160428928E+02 0.13453740741E+02 0.13210868321E+02
 0.13564542130E+02 0.14473673336E+02 0.15723614715E+02 0.16983117543E+02 0.17900263580E+02
 0.18203939378E+02 0.17776053089E+02 0.16673266258E+02 0.15098033838E+02 0.13336167575E+02
 0.11675393556E+02 0.10231470986E+02 0.89972371402E+01 0.79605935747E+01 0.71108767359E+01
 0.64380630747E+01 0.59307533867E+01 0.55755236540E+01 0.53584048515E+01 0.52676434126E+01
 0.52962953578E+01 0.54434767319E+01 0.57137174388E+01 0.61146968126E+01 0.66546652796E+01
 0.73414725053E+01 0.81843722429E+01 0.91975807638E+01 0.10402272648E+02 0.11818575391E+02
 0.13343069924E+02 0.14742227146E+02 0.15803145358E+02 0.16374168319E+02 0.16392702734E+02
 0.15873450828E+02 0.14579371364E+02 0.13109519879E+02 0.11818453935E+02 0.11048611472E+02
 0.11036335163E+02 0.11834971078E+02 0.13285158802E+02 0.15048571358E+02 0.16698418702E+02
 0.17837558801E+02 0.18203939702E+02 0.17729463131E+02 0.16538766834E+02 0.14897593034E+02
 0.13134915712E+02 0.11540459109E+02 0.10183948841E+02 0.90469829544E+01 0.81125144676E+01
 0.73672350859E+01 0.67993698574E+01 0.63960576432E+01 0.61429255314E+01 0.60261744775E+01
 0.60357472428E+01 0.61677077424E+01 0.64245284009E+01 0.68130739420E+01 0.73414725053E+01
 0.80171982161E+01 0.88483689662E+01 0.98479450852E+01 0.11037474637E+02 0.12444192087E+02
 0.13989188183E+02 0.15409409769E+02 0.16446275628E+02 0.16908373992E+02 0.16705834985E+02
 0.16203240469E+02 0.14504177462E+02 0.12514997151E+02 0.10627934697E+02 0.92518600018E+01
 0.87161130113E+01 0.91784936892E+01 0.10568583661E+02 0.12591277391E+02 0.14796765756E+02
 0.16698419202E+02 0.17900264410E+02 0.18191865441E+02 0.17583105264E+02 0.16276226060E+02
 0.14594079840E+02 0.12892601297E+02 0.11421065100E+02 0.10194173909E+02 0.91876231659E+01
 0.83825909540E+01 0.77653494770E+01 0.73235090016E+01 0.70432147769E+01 0.69095014867E+01
 0.69092738962E+01 0.70347524872E+01 0.72851933387E+01 0.76657867198E+01 0.81843722427E+01
 0.88483689661E+01 0.96647887070E+01 0.10644232055E+02 0.11806140582E+02 0.13179934624E+02
 0.14731859903E+02 0.16191813546E+02 0.17250290567E+02 0.17665925589E+02 0.17311991525E+02
 0.16981730630E+02 0.14988549954E+02 0.12578201475E+02 0.10162071576E+02 0.81899944339E+01
 0.70597404185E+01 0.70222310569E+01 0.81082891265E+01 0.10104009663E+02 0.12591277906E+02
 0.15048572396E+02 0.16983118947E+02 0.18051487629E+02 0.18130686798E+02 0.17323087917E+02
 0.15903701450E+02 0.14234883277E+02 0.12671445966E+02 0.11369911947E+02 0.10308476422E+02
 0.94617855941E+01 0.88124075810E+01 0.83475454748E+01 0.80542276225E+01 0.79171943524E+01
 0.79206807501E+01 0.80524180356E+01 0.83070094308E+01 0.86864726734E+01 0.91975807636E+01
 0.98479450851E+01 0.10644232055E+02 0.11594837272E+02 0.12715679721E+02 0.14033983925E+02
 0.15559878640E+02 0.17067933668E+02 0.18200184789E+02 0.18654965019E+02 0.18254491263E+02
 0.18224493028E+02 0.16091277525E+02 0.13407652121E+02 0.10591098594E+02 0.81115005513E+01
 0.64073105759E+01 0.57971054537E+01 0.64030482998E+01 0.81082894826E+01 0.10568584547E+02
 0.13285160257E+02 0.15723616607E+02 0.17443312351E+02 0.18195966953E+02 0.17965260892E+02
 0.16942982797E+02 0.15458472105E+02 0.13888129866E+02 0.12534088889E+02 0.11439967036E+02
 0.10574953883E+02 0.99169334577E+01 0.94514560968E+01 0.91660640947E+01 0.90456766164E+01
 0.90723139484E+01 0.92288024591E+01 0.95035825171E+01 0.98934088779E+01 0.10402272648E+02
 0.11037474637E+02 0.11806140582E+02 0.12715679721E+02 0.13778723194E+02 0.15018600762E+02
 0.16466329774E+02 0.17999857398E+02 0.19242583488E+02 0.19828424123E+02 0.19511732958E+02
 0.19849448782E+02 0.17763060859E+02 0.14991143330E+02 0.11945332705E+02 0.91018653187E+01
 0.69184537878E+01 0.57536807642E+01 0.57971055576E+01 0.70222315179E+01 0.91784946962E+01
 0.11834972703E+02 0.14473675488E+02 0.16609669441E+02 0.17901632447E+02 0.18219273172E+02
 0.17651533279E+02 0.16460865828E+02 0.15003811445E+02 0.13639285644E+02 0.12540224196E+02
 0.11685024669E+02 0.11047420985E+02 0.10610424500E+02 0.10361210491E+02 0.10284720645E+02
 0.10360943671E+02 0.10566089126E+02 0.10881361730E+02 0.11298806714E+02 0.11818575347E+02
 0.12444192065E+02 0.13179934623E+02 0.14033983925E+02 0.15018600762E+02 0.16153477711E+02
 0.17469622163E+02 0.18954969789E+02 0.20298730235E+02 0.21081962896E+02 0.20979961933E+02
 0.21670555294E+02 0.19829981311E+02 0.17178043718E+02 0.14101249879E+02 0.11070460518E+02
 0.85499925092E+01 0.69184536181E+01 0.64073105093E+01 0.70597407061E+01 0.87161138497E+01
 0.11036336653E+02 0.13564544232E+02 0.15826830188E+02 0.17436635036E+02 0.18176575179E+02
 0.18033967512E+02 0.17184228231E+02 0.15932413423E+02 0.14632619609E+02 0.13561929157E+02
 0.12748626215E+02 0.12164466671E+02 0.11790048694E+02 0.11611327654E+02 0.11608286638E+02
 0.11746133812E+02 0.11998281551E+02 0.12350169597E+02 0.12797595883E+02 0.13343069557E+02
 0.13989187831E+02 0.14731859635E+02 0.15559878497E+02 0.16466329741E+02 0.17469622163E+02
 0.18614777134E+02 0.19938255452E+02 0.21300372735E+02 0.22281385693E+02 0.22484013527E+02
 0.23429297088E+02 0.22007587559E+02 0.19683397593E+02 0.16785859375E+02 0.13761233337E+02
 0.11070460095E+02 0.91018647261E+01 0.81115000624E+01 0.81899942959E+01 0.92518604100E+01
 0.11048612545E+02 0.13210870065E+02 0.15319297024E+02 0.16991825806E+02 0.17964591568E+02
 0.18143893090E+02 0.17615941106E+02 0.16614310293E+02 0.15456287226E+02 0.14454562066E+02
 0.13717729330E+02 0.13221708567E+02 0.12946036160E+02 0.12868550985E+02 0.12939583186E+02
 0.13119649900E+02 0.13389447453E+02 0.13744480996E+02 0.14191112526E+02 0.14742226314E+02
 0.15409408853E+02 0.16191812666E+02 0.17067932951E+02 0.17999856933E+02 0.18954969585E+02
 0.19938255421E+02 0.21015618347E+02 0.22235019555E+02 0.23316577508E+02 0.23825148712E+02
 0.24866672382E+02 0.23958547103E+02 0.22129015076E+02 0.19608478492E+02 0.16785858798E+02
 0.14101248866E+02 0.11945331509E+02 0.10591097497E+02 0.10162070827E+02 0.10627934487E+02
 0.11818454385E+02 0.13453741887E+02 0.15192645539E+02 0.16696592061E+02 0.17697549603E+02
 0.18053399827E+02 0.17775615563E+02 0.17021430102E+02 0.16052311659E+02 0.15167854101E+02
 0.14542248723E+02 0.14167945561E+02 0.14024204611E+02 0.14056102016E+02 0.14188566153E+02
 0.14380492140E+02 0.14621324903E+02 0.14921568146E+02 0.15305074512E+02 0.15803144127E+02
 0.16446274156E+02 0.17250288994E+02 0.18200183296E+02 0.19242582262E+02 0.20298729405E+02
 0.21300372315E+02 0.22235019437E+02 0.23175186951E+02 0.24160080875E+02 0.24854978020E+02
 0.25814644755E+02 0.25387269206E+02 0.24126793503E+02 0.22129014543E+02 0.19683396459E+02
 0.17178042103E+02 0.14991141488E+02 0.13407650347E+02 0.12578200033E+02 0.12514996233E+02
 0.13109519608E+02 0.14160429351E+02 0.15408573851E+02 0.16580146025E+02 0.17436171343E+02
 0.17820556845E+02 0.17694964838E+02 0.17149430391E+02 0.16382953340E+02 0.15656639696E+02
 0.15173946211E+02 0.14950668615E+02 0.14960444791E+02 0.15105392968E+02 0.15287542979E+02
 0.15458430081E+02 0.15614771406E+02 0.15785616944E+02 0.16019381600E+02 0.16374166909E+02
 0.16908372179E+02 0.17665923496E+02 0.18654962845E+02 0.19828422114E+02 0.21081961281E+02
 0.22281384610E+02 0.23316576949E+02 0.24160080694E+02 0.24895923176E+02 0.25544361855E+02
 0.26267485633E+02 0.26140252974E+02 0.25387268903E+02 0.23958546267E+02 0.22007586086E+02
 0.19829979284E+02 0.17763058516E+02 0.16091275174E+02 0.14988547879E+02 0.14504175874E+02
 0.14579370392E+02 0.15076311236E+02 0.15808496985E+02 0.16570726588E+02 0.17171477208E+02
 0.17468114864E+02 0.17399619857E+02 0.17006998136E+02 0.16431568307E+02 0.15886759320E+02
 0.15571737193E+02 0.15521153924E+02 0.15699058353E+02 0.15966726564E+02 0.16196425500E+02
 0.16322622418E+02 0.16343308924E+02 0.16306473716E+02 0.16291488771E+02 0.16392701435E+02
 0.16705833151E+02 0.17311989251E+02 0.18254488729E+02 0.19511730422E+02 0.20979959684E+02
 0.22484011804E+02 0.23825147617E+02 0.24854977487E+02 0.25544361692E+02 0.26002505341E+02
 0.26034721822E+02 0.25717540017E+02 0.25199322010E+02 0.24341054867E+02 0.23109298298E+02
 0.21615461999E+02 0.20059456065E+02 0.18649891750E+02 0.17538347339E+02 0.16789700342E+02
 0.16388013890E+02 0.16261941463E+02 0.16311932093E+02 0.16430479018E+02 0.16517169186E+02
 0.16494690344E+02 0.16328514501E+02 0.16045730281E+02 0.15743301670E+02 0.15575445043E+02
 0.15655298100E+02 0.15997075309E+02 0.16517957777E+02 0.17008686106E+02 0.17292044154E+02