<?xml version="1.0" encoding="ISO-8859-1"?>
<modeling>
 <generator>
  <i name="program" type="string">vasp </i>
  <i name="version" type="string">5.4.1  </i>
  <i name="subversion" type="string">05Feb16 (build Aug 05 2018 21:31:17) complex                          parallel </i>
  <i name="platform" type="string">IFC91_ompi </i>
  <i name="date" type="string">2018 08 11 </i>
  <i name="time" type="string">18:37:34 </i>
 </generator>
 <incar>
  <i type="string" name="PREC">normal</i>
  <i type="string" name="ALGO"> Fast</i>
  <i type="int" name="NSIM">     1</i>
  <i type="int" name="ISPIN">     2</i>
  <i type="int" name="NELM">   100</i>
  <i type="int" name="IBRION">     2</i>
  <i name="EDIFF">      0.00010000</i>
  <i type="int" name="NSW">     0</i>
  <i name="ENCUT">    320.00000000</i>
  <i type="string" name="LREAL"> Auto</i>
  <i type="int" name="ISMEAR">     0</i>
  <i name="SIGMA">      0.20000000</i>
  <i type="logical" name="LWAVE"> T  </i>
  <i type="logical" name="LORBIT"> F  </i>
  <i type="logical" name="LAECHG"> T  </i>
  <v type="int" name="KPOINT_BSE">    -1     0     0     0</v>
  <i type="int" name="NELM">   100</i>
 </incar>
 <kpoints>
  <generation param="Monkhorst-Pack">
   <v type="int" name="divisions">       2        2        2 </v>
   <v name="usershift">      0.00000000       0.00000000       0.00000000 </v>
   <v name="genvec1">      0.50000000       0.00000000       0.00000000 </v>
   <v name="genvec2">     -0.00000000       0.50000000       0.00000000 </v>
   <v name="genvec3">      0.00000000       0.00000000       0.50000000 </v>
   <v name="shift">      0.50000000       0.50000000       0.50000000 </v>
  </generation>
  <varray name="kpointlist" >
   <v>       0.25000000       0.25000000       0.25000000 </v>
   <v>      -0.25000000       0.25000000       0.25000000 </v>
  </varray>
  <varray name="weights" >
   <v>       0.50000000 </v>
   <v>       0.50000000 </v>
  </varray>
 </kpoints>
 <parameters>
  <separator name="general" >
   <i type="string" name="SYSTEM">unknown system</i>
   <i type="logical" name="LCOMPAT"> F  </i>
  </separator>
  <separator name="electronic" >
   <i type="string" name="PREC">normal</i>
   <i name="ENMAX">    320.00000000</i>
   <i name="ENAUG">    320.26400000</i>
   <i name="EDIFF">      0.00010000</i>
   <i type="int" name="IALGO">    68</i>
   <i type="int" name="IWAVPR">    10</i>
   <i type="int" name="NBANDS">    24</i>
   <i name="NELECT">     12.00000000</i>
   <i type="int" name="TURBO">     0</i>
   <i type="int" name="IRESTART">     0</i>
   <i type="int" name="NREBOOT">     0</i>
   <i type="int" name="NMIN">     0</i>
   <i name="EREF">      0.00000000</i>
   <separator name="electronic smearing" >
    <i type="int" name="ISMEAR">     0</i>
    <i name="SIGMA">      0.20000000</i>
    <i name="KSPACING">      0.50000000</i>
    <i type="logical" name="KGAMMA"> T  </i>
   </separator>
   <separator name="electronic projectors" >
    <i type="logical" name="LREAL"> T  </i>
    <v name="ROPT">     -0.00050000</v>
    <i type="int" name="LMAXPAW">  -100</i>
    <i type="int" name="LMAXMIX">     2</i>
    <i type="logical" name="NLSPLINE"> F  </i>
   </separator>
   <separator name="electronic startup" >
    <i type="int" name="ISTART">     1</i>
    <i type="int" name="ICHARG">     0</i>
    <i type="int" name="INIWAV">     1</i>
   </separator>
   <separator name="electronic spin" >
    <i type="int" name="ISPIN">     2</i>
    <i type="logical" name="LNONCOLLINEAR"> F  </i>
    <v name="MAGMOM">      1.00000000      1.00000000      1.00000000      1.00000000</v>
    <i name="NUPDOWN">     -1.00000000</i>
    <i type="logical" name="LSORBIT"> F  </i>
    <v name="SAXIS">      0.00000000      0.00000000      1.00000000</v>
    <i type="logical" name="LSPIRAL"> F  </i>
    <v name="QSPIRAL">      0.00000000      0.00000000      0.00000000</v>
    <i type="logical" name="LZEROZ"> F  </i>
   </separator>
   <separator name="electronic exchange-correlation" >
    <i type="logical" name="LASPH"> F  </i>
    <i type="logical" name="LMETAGGA"> F  </i>
   </separator>
   <separator name="electronic convergence" >
    <i type="int" name="NELM">   100</i>
    <i type="int" name="NELMDL">     0</i>
    <i type="int" name="NELMIN">     2</i>
    <i name="ENINI">    320.00000000</i>
    <separator name="electronic convergence detail" >
     <i type="logical" name="LDIAG"> T  </i>
     <i type="logical" name="LSUBROT"> F  </i>
     <i name="WEIMIN">      0.00000000</i>
     <i name="EBREAK">      0.00000104</i>
     <i name="DEPER">      0.30000000</i>
     <i type="int" name="NRMM">     4</i>
     <i name="TIME">      0.40000000</i>
    </separator>
   </separator>
   <separator name="electronic mixer" >
    <i name="AMIX">      0.40000000</i>
    <i name="BMIX">      1.00000000</i>
    <i name="AMIN">      0.10000000</i>
    <i name="AMIX_MAG">      1.60000000</i>
    <i name="BMIX_MAG">      1.00000000</i>
    <separator name="electronic mixer details" >
     <i type="int" name="IMIX">     4</i>
     <i type="logical" name="MIXFIRST"> F  </i>
     <i type="int" name="MAXMIX">   -45</i>
     <i name="WC">    100.00000000</i>
     <i type="int" name="INIMIX">     1</i>
     <i type="int" name="MIXPRE">     1</i>
     <i type="int" name="MREMOVE">     5</i>
    </separator>
   </separator>
   <separator name="electronic dipolcorrection" >
    <i type="logical" name="LDIPOL"> F  </i>
    <i type="logical" name="LMONO"> F  </i>
    <i type="int" name="IDIPOL">     0</i>
    <i name="EPSILON">      1.00000000</i>
    <v name="DIPOL">   -100.00000000   -100.00000000   -100.00000000</v>
    <i name="EFIELD">      0.00000000</i>
   </separator>
  </separator>
  <separator name="grids" >
   <i type="int" name="NGX">    20</i>
   <i type="int" name="NGY">    20</i>
   <i type="int" name="NGZ">    20</i>
   <i type="int" name="NGXF">    40</i>
   <i type="int" name="NGYF">    40</i>
   <i type="int" name="NGZF">    40</i>
   <i type="logical" name="ADDGRID"> F  </i>
  </separator>
  <separator name="ionic" >
   <i type="int" name="NSW">     0</i>
   <i type="int" name="IBRION">    -1</i>
   <i type="int" name="ISIF">     2</i>
   <i name="PSTRESS">      0.00000000</i>
   <i name="EDIFFG">      0.00100000</i>
   <i type="int" name="NFREE">     1</i>
   <i name="POTIM">      0.50000000</i>
   <i name="SMASS">     -3.00000000</i>
   <i name="SCALEE">      1.00000000</i>
  </separator>
  <separator name="ionic md" >
   <i name="TEBEG">      0.00010000</i>
   <i name="TEEND">      0.00010000</i>
   <i type="int" name="NBLOCK">     1</i>
   <i type="int" name="KBLOCK">     1</i>
   <i type="int" name="NPACO">   256</i>
   <i name="APACO">     16.00000000</i>
  </separator>
  <separator name="symmetry" >
   <i type="int" name="ISYM">     2</i>
   <i name="SYMPREC">      0.00001000</i>
  </separator>
  <separator name="dos" >
   <i type="logical" name="LORBIT"> F  </i>
   <v name="RWIGS">     -1.00000000</v>
   <i type="int" name="NEDOS">   301</i>
   <i name="EMIN">     10.00000000</i>
   <i name="EMAX">    -10.00000000</i>
   <i name="EFERMI">      0.00000000</i>
  </separator>
  <separator name="writing" >
   <i type="int" name="NWRITE">     2</i>
   <i type="logical" name="LWAVE"> T  </i>
   <i type="logical" name="LCHARG"> T  </i>
   <i type="logical" name="LPARD"> F  </i>
   <i type="logical" name="LVTOT"> F  </i>
   <i type="logical" name="LVHAR"> F  </i>
   <i type="logical" name="LELF"> F  </i>
   <i type="logical" name="LOPTICS"> F  </i>
   <v name="STM">      0.00000000      0.00000000      0.00000000      0.00000000      0.00000000      0.00000000      0.00000000</v>
  </separator>
  <separator name="performance" >
   <i type="int" name="NPAR">    24</i>
   <i type="int" name="NSIM">     1</i>
   <i type="int" name="NBLK">    -1</i>
   <i type="logical" name="LPLANE"> T  </i>
   <i type="logical" name="LSCALAPACK"> T  </i>
   <i type="logical" name="LSCAAWARE"> F  </i>
   <i type="logical" name="LSCALU"> F  </i>
   <i type="logical" name="LASYNC"> F  </i>
   <i type="logical" name="LORBITALREAL"> F  </i>
  </separator>
  <separator name="miscellaneous" >
   <i type="int" name="IDIOT">     3</i>
   <i type="logical" name="LMUSIC"> F  </i>
   <v name="POMASS">     69.72300000</v>
   <v name="DARWINR">      0.00000000</v>
   <v name="DARWINV">      1.00000000</v>
   <i type="logical" name="LCORR"> T  </i>
  </separator>
  <i type="logical" name="GGA_COMPAT"> T  </i>
  <i type="logical" name="LBERRY"> F  </i>
  <i type="int" name="ICORELEVEL">     0</i>
  <i type="logical" name="LDAU"> F  </i>
  <i type="int" name="I_CONSTRAINED_M">     0</i>
  <separator name="electronic exchange-correlation" >
   <i type="string" name="GGA">--</i>
   <i type="int" name="VOSKOWN">     0</i>
   <i type="logical" name="LHFCALC"> F  </i>
   <i type="string" name="PRECFOCK"></i>
   <i type="logical" name="LSYMGRAD"> F  </i>
   <i type="logical" name="LHFONE"> F  </i>
   <i type="logical" name="LRHFCALC"> F  </i>
   <i type="logical" name="LTHOMAS"> F  </i>
   <i type="logical" name="LMODELHF"> F  </i>
   <i name="ENCUT4O">     -1.00000000</i>
   <i type="int" name="EXXOEP">     0</i>
   <i type="int" name="FOURORBIT">     0</i>
   <i name="AEXX">      0.00000000</i>
   <i name="HFALPHA">      0.00000000</i>
   <i name="MCALPHA">      0.00000000</i>
   <i name="ALDAX">      1.00000000</i>
   <i name="AGGAX">      1.00000000</i>
   <i name="ALDAC">      1.00000000</i>
   <i name="AGGAC">      1.00000000</i>
   <i type="int" name="NKREDX">     1</i>
   <i type="int" name="NKREDY">     1</i>
   <i type="int" name="NKREDZ">     1</i>
   <i type="logical" name="SHIFTRED"> F  </i>
   <i type="logical" name="ODDONLY"> F  </i>
   <i type="logical" name="EVENONLY"> F  </i>
   <i type="int" name="LMAXFOCK">     0</i>
   <i type="int" name="NMAXFOCKAE">     0</i>
   <i type="logical" name="LFOCKAEDFT"> F  </i>
   <i name="HFSCREEN">      0.00000000</i>
   <i name="HFSCREENC">      0.00000000</i>
   <i type="int" name="NBANDSGWLOW">     0</i>
  </separator>
  <separator name="vdW DFT" >
   <i type="logical" name="LUSE_VDW"> F  </i>
   <i name="Zab_VDW">     -0.84910000</i>
   <i name="PARAM1">      0.12340000</i>
   <i name="PARAM2">      1.00000000</i>
   <i name="PARAM3">      0.00000000</i>
  </separator>
  <separator name="model GW" >
   <i type="int" name="MODEL_GW">     0</i>
   <i name="MODEL_EPS0">     10.98061938</i>
   <i name="MODEL_ALPHA">      1.00000000</i>
  </separator>
  <separator name="linear response parameters" >
   <i type="logical" name="LEPSILON"> F  </i>
   <i type="logical" name="LRPA"> F  </i>
   <i type="logical" name="LNABLA"> F  </i>
   <i type="logical" name="LVEL"> F  </i>
   <i type="int" name="KINTER">     0</i>
   <i name="CSHIFT">      0.10000000</i>
   <i name="OMEGAMAX">     -1.00000000</i>
   <i name="DEG_THRESHOLD">      0.00200000</i>
  </separator>
  <separator name="orbital magnetization" >
   <i type="logical" name="NUCIND"> F  </i>
   <v name="MAGPOS">      0.00000000      0.00000000      0.00000000</v>
   <i type="logical" name="LNICSALL"> T  </i>
   <i type="logical" name="ORBITALMAG"> F  </i>
   <i type="logical" name="LMAGBLOCH"> F  </i>
   <i type="logical" name="LCHIMAG"> F  </i>
   <i type="logical" name="LGAUGE"> T  </i>
   <i type="int" name="MAGATOM">     0</i>
   <v name="MAGDIPOL">      0.00000000      0.00000000      0.00000000</v>
   <v name="AVECCONST">      0.00000000      0.00000000      0.00000000</v>
  </separator>
  <separator name="response functions" >
   <i type="logical" name="LADDER"> F  </i>
   <i type="logical" name="LFXC"> F  </i>
   <i type="logical" name="LHARTREE"> T  </i>
   <i type="int" name="IBSE">     0</i>
   <v type="int" name="KPOINT">    -1     0     0     0</v>
   <i type="logical" name="LTCTE"> F  </i>
   <i type="logical" name="LTETE"> F  </i>
   <i type="logical" name="LTRIPLET"> F  </i>
   <i type="logical" name="LFXCEPS"> F  </i>
   <i type="logical" name="LFXHEG"> F  </i>
   <i type="int" name="NATURALO">     0</i>
   <i type="logical" name="L2ORDER"> F  </i>
   <i type="logical" name="LUSEW"> F  </i>
   <i name="ENCUTGW">     -2.00000000</i>
   <i name="ENCUTGWSOFT">     -2.00000000</i>
   <i name="ENCUTLF">     -1.00000000</i>
   <i type="int" name="LMAXMP2">    -1</i>
   <i name="SCISSOR">      0.00000000</i>
   <i type="int" name="NOMEGA">     0</i>
   <i type="int" name="NOMEGAR">     0</i>
   <i type="int" name="NBANDSGW">    -1</i>
   <i type="int" name="NBANDSO">    -1</i>
   <i type="int" name="NBANDSV">    -1</i>
   <i type="int" name="NELM">   100</i>
   <i type="int" name="NELMHF">     1</i>
   <i type="int" name="DIM">     3</i>
   <i type="int" name="ANTIRES">     0</i>
   <i name="OMEGAMAX">    -30.00000000</i>
   <i name="OMEGAMIN">    -30.00000000</i>
   <i name="OMEGATL">   -200.00000000</i>
   <i type="int" name="OMEGAGRID">     0</i>
   <i name="CSHIFT">     -0.10000000</i>
   <i type="logical" name="SELFENERGY"> F  </i>
   <i type="logical" name="LSPECTRAL"> F  </i>
   <i type="logical" name="LSPECTRALGW"> F  </i>
   <i type="logical" name="LSINGLES"> F  </i>
   <i type="logical" name="LFERMIGW"> F  </i>
   <i type="logical" name="ODDONLYGW"> F  </i>
   <i type="logical" name="EVENONLYGW"> F  </i>
   <i type="int" name="NKREDLFX">     1</i>
   <i type="int" name="NKREDLFY">     1</i>
   <i type="int" name="NKREDLFZ">     1</i>
   <i type="int" name="MAXMEM">  1800</i>
   <i type="int" name="TELESCOPE">     0</i>
   <i type="int" name="TAUPAR">     1</i>
   <i type="int" name="OMEGAPAR">    -1</i>
   <i name="LAMBDA">      1.00000000</i>
  </separator>
  <separator name="External order field" >
   <i name="OFIELD_KAPPA">      0.00000000</i>
   <v name="OFIELD_K">      0.00000000      0.00000000      0.00000000</v>
   <i name="OFIELD_Q6_NEAR">      0.00000000</i>
   <i name="OFIELD_Q6_FAR">      0.00000000</i>
   <i name="OFIELD_A">      0.00000000</i>
  </separator>
 </parameters>
 <atominfo>
  <atoms>       4 </atoms>
  <types>       1 </types>
  <array name="atoms" >
   <dimension dim="1">ion</dimension>
   <field type="string">element</field>
   <field type="int">atomtype</field>
   <set>
    <rc><c>Ga</c><c>   1</c></rc>
    <rc><c>Ga</c><c>   1</c></rc>
    <rc><c>Ga</c><c>   1</c></rc>
    <rc><c>Ga</c><c>   1</c></rc>
   </set>
  </array>
  <array name="atomtypes" >
   <dimension dim="1">type</dimension>
   <field type="int">atomspertype</field>
   <field type="string">element</field>
   <field>mass</field>
   <field>valence</field>
   <field type="string">pseudopotential</field>
   <set>
    <rc><c>   4</c><c>Ga</c><c>     69.72300000</c><c>      3.00000000</c><c> PAW_PBE Ga 08Apr2002                   </c></rc>
   </set>
  </array>
 </atominfo>
 <structure name="initialpos" >
  <crystal>
   <varray name="basis" >
    <v>       4.35155188       0.01064991       0.00000000 </v>
    <v>      -2.09701412       3.81295742       0.00000000 </v>
    <v>       0.00000000       0.00000000       4.40600814 </v>
   </varray>
   <i name="volume">     73.20412919 </i>
   <varray name="rec_basis" >
    <v>       0.22949418       0.12621503       0.00000000 </v>
    <v>      -0.00064100       0.26191109       0.00000000 </v>
    <v>       0.00000000       0.00000000       0.22696281 </v>
   </varray>
  </crystal>
  <varray name="positions" >
   <v>       0.15604272       0.84395728       0.91665406 </v>
   <v>       0.34395728       0.65604272       0.41665406 </v>
   <v>       0.84395728       0.15604272       0.08334594 </v>
   <v>       0.65604272       0.34395728       0.58334594 </v>
  </varray>
 </structure>
 <calculation>
  <scstep>
   <time name="dav">    0.07    0.88</time>
   <time name="total">    0.11    1.94</time>
   <energy>
    <i name="alphaZ">     38.98778104 </i>
    <i name="ewald">   -273.94013981 </i>
    <i name="hartreedc">     -9.93773479 </i>
    <i name="XCdc">    -75.79277983 </i>
    <i name="pawpsdc">    236.77522275 </i>
    <i name="pawaedc">   -143.49471863 </i>
    <i name="eentropy">     -0.00171241 </i>
    <i name="bandstr">    -20.16645312 </i>
    <i name="atom">    235.47460105 </i>
    <i name="e_fr_energy">    -12.09593374 </i>
    <i name="e_wo_entrp">    -12.09422133 </i>
    <i name="e_0_energy">    -12.09507754 </i>
   </energy>
  </scstep>
  <scstep>
   <time name="diag">    0.03    0.06</time>
   <time name="diis">    0.01    0.01</time>
   <time name="orth">    0.00    0.00</time>
   <time name="total">    0.06    0.09</time>
   <energy>
    <i name="e_fr_energy">    -11.86468576 </i>
    <i name="e_wo_entrp">    -11.86233418 </i>
    <i name="e_0_energy">    -11.86350997 </i>
   </energy>
  </scstep>
  <scstep>
   <time name="diag">    0.01    0.01</time>
   <time name="diis">    0.01    0.01</time>
   <time name="orth">    0.00    0.00</time>
   <time name="total">    0.04    0.04</time>
   <energy>
    <i name="e_fr_energy">    -11.71555216 </i>
    <i name="e_wo_entrp">    -11.71181016 </i>
    <i name="e_0_energy">    -11.71368116 </i>
   </energy>
  </scstep>
  <scstep>
   <time name="diag">    0.01    0.01</time>
   <time name="diis">    0.01    0.01</time>
   <time name="orth">    0.00    0.00</time>
   <time name="total">    0.03    0.04</time>
   <energy>
    <i name="e_fr_energy">    -11.71625735 </i>
    <i name="e_wo_entrp">    -11.71256764 </i>
    <i name="e_0_energy">    -11.71441249 </i>
   </energy>
  </scstep>
  <scstep>
   <time name="diag">    0.01    0.01</time>
   <time name="diis">    0.01    0.01</time>
   <time name="orth">    0.00    0.00</time>
   <time name="total">    0.03    0.77</time>
   <energy>
    <i name="e_fr_energy">    -11.71651480 </i>
    <i name="e_wo_entrp">    -11.71290421 </i>
    <i name="e_0_energy">    -11.71470951 </i>
   </energy>
  </scstep>
  <scstep>
   <time name="diag">    0.01    0.01</time>
   <time name="diis">    0.01    0.01</time>
   <time name="orth">    0.00    0.00</time>
   <time name="total">    0.03    0.04</time>
   <energy>
    <i name="alphaZ">     38.98778104 </i>
    <i name="ewald">   -273.94013981 </i>
    <i name="hartreedc">     -5.80934099 </i>
    <i name="XCdc">    -75.56670810 </i>
    <i name="pawpsdc">    218.73228895 </i>
    <i name="pawaedc">   -124.85082785 </i>
    <i name="eentropy">     -0.00360808 </i>
    <i name="bandstr">    -24.74059122 </i>
    <i name="atom">    235.47460105 </i>
    <i name="e_fr_energy">    -11.71654499 </i>
    <i name="e_wo_entrp">    -11.71293691 </i>
    <i name="e_0_energy">    -11.71474095 </i>
   </energy>
  </scstep>
  <structure>
   <crystal>
    <varray name="basis" >
     <v>       4.35155188       0.01064991       0.00000000 </v>
     <v>      -2.09701412       3.81295742       0.00000000 </v>
     <v>       0.00000000       0.00000000       4.40600814 </v>
    </varray>
    <i name="volume">     73.20412919 </i>
    <varray name="rec_basis" >
     <v>       0.22949418       0.12621503       0.00000000 </v>
     <v>      -0.00064100       0.26191109       0.00000000 </v>
     <v>       0.00000000       0.00000000       0.22696281 </v>
    </varray>
   </crystal>
   <varray name="positions" >
    <v>       0.15604272       0.84395728       0.91665406 </v>
    <v>       0.34395728       0.65604272       0.41665406 </v>
    <v>       0.84395728       0.15604272       0.08334594 </v>
    <v>       0.65604272       0.34395728       0.58334594 </v>
   </varray>
  </structure>
  <varray name="forces" >
   <v>      -0.38217230       0.22534260       0.38011468 </v>
   <v>       0.38217230      -0.22534260       0.38011468 </v>
   <v>       0.38217230      -0.22534260      -0.38011468 </v>
   <v>      -0.38217230       0.22534260      -0.38011468 </v>
  </varray>
  <varray name="stress" >
   <v>      83.17417902      31.92305073       0.00000000 </v>
   <v>      31.92305073     118.49140598       0.00000000 </v>
   <v>      -0.00000000       0.00000000     -26.47594698 </v>
  </varray>
  <energy>
   <i name="e_fr_energy">    -11.71654499 </i>
   <i name="e_wo_entrp">    -11.71474095 </i>
   <i name="e_0_energy">     -0.00360808 </i>
  </energy>
  <time name="totalsc">    0.59    3.28</time>
  <eigenvalues>
   <array>
    <dimension dim="1">band</dimension>
    <dimension dim="2">kpoint</dimension>
    <dimension dim="3">spin</dimension>
    <field>eigene</field>
    <field>occ</field>
    <set>
     <set comment="spin 1">
      <set comment="kpoint 1">
       <r>   -6.3994    1.0000 </r>
       <r>   -4.6315    1.0000 </r>
       <r>   -3.2426    1.0000 </r>
       <r>   -1.5360    1.0000 </r>
       <r>   -0.2275    1.0000 </r>
       <r>    1.5640    1.0000 </r>
       <r>    4.7976    0.0000 </r>
       <r>    5.6408    0.0000 </r>
       <r>    6.9709    0.0000 </r>
       <r>    7.7244    0.0000 </r>
       <r>    8.4014    0.0000 </r>
       <r>    9.5640    0.0000 </r>
       <r>    9.7527    0.0000 </r>
       <r>   11.2473    0.0000 </r>
       <r>   11.5500    0.0000 </r>
       <r>   12.7557    0.0000 </r>
       <r>   14.2178    0.0000 </r>
       <r>   15.6162    0.0000 </r>
       <r>   15.6601    0.0000 </r>
       <r>   17.6558    0.0000 </r>
       <r>   17.8271    0.0000 </r>
       <r>   18.8644    0.0000 </r>
       <r>   19.0239    0.0000 </r>
       <r>   19.5133    0.0000 </r>
      </set>
      <set comment="kpoint 2">
       <r>   -7.7343    1.0000 </r>
       <r>   -3.9690    1.0000 </r>
       <r>   -1.5781    1.0000 </r>
       <r>   -0.1297    1.0000 </r>
       <r>    0.2447    1.0000 </r>
       <r>    2.8955    0.9957 </r>
       <r>    3.6377    0.0043 </r>
       <r>    4.0687    0.0000 </r>
       <r>    4.7719    0.0000 </r>
       <r>    7.2470    0.0000 </r>
       <r>    7.3785    0.0000 </r>
       <r>    8.7908    0.0000 </r>
       <r>   10.1970    0.0000 </r>
       <r>   11.0220    0.0000 </r>
       <r>   11.8016    0.0000 </r>
       <r>   12.3234    0.0000 </r>
       <r>   13.0110    0.0000 </r>
       <r>   13.9849    0.0000 </r>
       <r>   16.8106    0.0000 </r>
       <r>   17.2760    0.0000 </r>
       <r>   17.8275    0.0000 </r>
       <r>   18.4541    0.0000 </r>
       <r>   18.4693    0.0000 </r>
       <r>   19.7238    0.0000 </r>
      </set>
     </set>
     <set comment="spin 2">
      <set comment="kpoint 1">
       <r>   -6.3994    1.0000 </r>
       <r>   -4.6315    1.0000 </r>
       <r>   -3.2426    1.0000 </r>
       <r>   -1.5360    1.0000 </r>
       <r>   -0.2275    1.0000 </r>
       <r>    1.5640    1.0000 </r>
       <r>    4.7976    0.0000 </r>
       <r>    5.6408    0.0000 </r>
       <r>    6.9709    0.0000 </r>
       <r>    7.7244    0.0000 </r>
       <r>    8.4014    0.0000 </r>
       <r>    9.5640    0.0000 </r>
       <r>    9.7527    0.0000 </r>
       <r>   11.2473    0.0000 </r>
       <r>   11.5500    0.0000 </r>
       <r>   12.7557    0.0000 </r>
       <r>   14.2178    0.0000 </r>
       <r>   15.6162    0.0000 </r>
       <r>   15.6601    0.0000 </r>
       <r>   17.6558    0.0000 </r>
       <r>   17.8271    0.0000 </r>
       <r>   18.8644    0.0000 </r>
       <r>   19.0239    0.0000 </r>
       <r>   19.5133    0.0000 </r>
      </set>
      <set comment="kpoint 2">
       <r>   -7.7343    1.0000 </r>
       <r>   -3.9690    1.0000 </r>
       <r>   -1.5781    1.0000 </r>
       <r>   -0.1297    1.0000 </r>
       <r>    0.2447    1.0000 </r>
       <r>    2.8955    0.9957 </r>
       <r>    3.6377    0.0043 </r>
       <r>    4.0687    0.0000 </r>
       <r>    4.7719    0.0000 </r>
       <r>    7.2470    0.0000 </r>
       <r>    7.3785    0.0000 </r>
       <r>    8.7908    0.0000 </r>
       <r>   10.1970    0.0000 </r>
       <r>   11.0220    0.0000 </r>
       <r>   11.8016    0.0000 </r>
       <r>   12.3234    0.0000 </r>
       <r>   13.0110    0.0000 </r>
       <r>   13.9849    0.0000 </r>
       <r>   16.8106    0.0000 </r>
       <r>   17.2760    0.0000 </r>
       <r>   17.8275    0.0000 </r>
       <r>   18.4541    0.0000 </r>
       <r>   18.4693    0.0000 </r>
       <r>   19.7238    0.0000 </r>
      </set>
     </set>
    </set>
   </array>
  </eigenvalues>
  <separator name="orbital magnetization" >
   <v name="MAGDIPOLOUT">      0.00000000      0.00000000      0.00000000</v>
  </separator>
  <dos>
   <i name="efermi">      3.26663806 </i>
   <total>
    <array>
     <dimension dim="1">gridpoints</dimension>
     <dimension dim="2">spin</dimension>
     <field>energy</field>
     <field>total</field>
     <field>integrated</field>
     <set>
      <set comment="spin 1">
       <r>    -9.7343     0.0000     0.0000 </r>
       <r>    -9.6294     0.0000     0.0000 </r>
       <r>    -9.5245     0.0000     0.0000 </r>
       <r>    -9.4197     0.0000     0.0000 </r>
       <r>    -9.3148     0.0000     0.0000 </r>
       <r>    -9.2100     0.0000     0.0000 </r>
       <r>    -9.1051     0.0000     0.0000 </r>
       <r>    -9.0002     0.0000     0.0000 </r>
       <r>    -8.8954     0.0000     0.0000 </r>
       <r>    -8.7905     0.0000     0.0000 </r>
       <r>    -8.6857     0.0000     0.0000 </r>
       <r>    -8.5808     0.0000     0.0000 </r>
       <r>    -8.4759     0.0000     0.0000 </r>
       <r>    -8.3711     0.0000     0.0000 </r>
       <r>    -8.2662     0.0004     0.0000 </r>
       <r>    -8.1614     0.0056     0.0006 </r>
       <r>    -8.0565     0.0481     0.0057 </r>
       <r>    -7.9516     0.2422     0.0311 </r>
       <r>    -7.8468     0.7200     0.1066 </r>
       <r>    -7.7419     1.2649     0.2392 </r>
       <r>    -7.6371     1.3144     0.3770 </r>
       <r>    -7.5322     0.8078     0.4617 </r>
       <r>    -7.4273     0.2934     0.4925 </r>
       <r>    -7.3225     0.0629     0.4991 </r>
       <r>    -7.2176     0.0080     0.4999 </r>
       <r>    -7.1128     0.0006     0.5000 </r>
       <r>    -7.0079     0.0001     0.5000 </r>
       <r>    -6.9030     0.0008     0.5001 </r>
       <r>    -6.7982     0.0106     0.5012 </r>
       <r>    -6.6933     0.0783     0.5094 </r>
       <r>    -6.5885     0.3422     0.5453 </r>
       <r>    -6.4836     0.8827     0.6379 </r>
       <r>    -6.3787     1.3459     0.7790 </r>
       <r>    -6.2739     1.2138     0.9063 </r>
       <r>    -6.1690     0.6474     0.9742 </r>
       <r>    -6.0642     0.2040     0.9956 </r>
       <r>    -5.9593     0.0379     0.9995 </r>
       <r>    -5.8544     0.0042     1.0000 </r>
       <r>    -5.7496     0.0003     1.0000 </r>
       <r>    -5.6447     0.0000     1.0000 </r>
       <r>    -5.5399     0.0000     1.0000 </r>
       <r>    -5.4350     0.0000     1.0000 </r>
       <r>    -5.3301     0.0000     1.0000 </r>
       <r>    -5.2253     0.0001     1.0000 </r>
       <r>    -5.1204     0.0012     1.0001 </r>
       <r>    -5.0156     0.0145     1.0017 </r>
       <r>    -4.9107     0.0995     1.0121 </r>
       <r>    -4.8058     0.4037     1.0544 </r>
       <r>    -4.7010     0.9669     1.1558 </r>
       <r>    -4.5961     1.3693     1.2994 </r>
       <r>    -4.4913     1.1475     1.4197 </r>
       <r>    -4.3864     0.5751     1.4800 </r>
       <r>    -4.2815     0.2234     1.5034 </r>
       <r>    -4.1767     0.3026     1.5352 </r>
       <r>    -4.0718     0.7785     1.6168 </r>
       <r>    -3.9670     1.2980     1.7529 </r>
       <r>    -3.8621     1.2845     1.8876 </r>
       <r>    -3.7572     0.7524     1.9665 </r>
       <r>    -3.6524     0.2684     1.9947 </r>
       <r>    -3.5475     0.1183     2.0071 </r>
       <r>    -3.4427     0.3072     2.0393 </r>
       <r>    -3.3378     0.8201     2.1253 </r>
       <r>    -3.2329     1.3200     2.2637 </r>
       <r>    -3.1281     1.2574     2.3955 </r>
       <r>    -3.0232     0.7083     2.4698 </r>
       <r>    -2.9184     0.2358     2.4945 </r>
       <r>    -2.8135     0.0463     2.4994 </r>
       <r>    -2.7086     0.0054     2.5000 </r>
       <r>    -2.6038     0.0004     2.5000 </r>
       <r>    -2.4989     0.0000     2.5000 </r>
       <r>    -2.3941     0.0000     2.5000 </r>
       <r>    -2.2892     0.0000     2.5000 </r>
       <r>    -2.1843     0.0001     2.5000 </r>
       <r>    -2.0795     0.0012     2.5001 </r>
       <r>    -1.9746     0.0154     2.5017 </r>
       <r>    -1.8698     0.1204     2.5144 </r>
       <r>    -1.7649     0.5597     2.5731 </r>
       <r>    -1.6600     1.5517     2.7358 </r>
       <r>    -1.5552     2.5706     3.0053 </r>
       <r>    -1.4503     2.5466     3.2724 </r>
       <r>    -1.3455     1.5088     3.4306 </r>
       <r>    -1.2406     0.5341     3.4866 </r>
       <r>    -1.1357     0.1128     3.4984 </r>
       <r>    -1.0309     0.0142     3.4999 </r>
       <r>    -0.9260     0.0011     3.5000 </r>
       <r>    -0.8212     0.0001     3.5000 </r>
       <r>    -0.7163     0.0013     3.5001 </r>
       <r>    -0.6114     0.0160     3.5018 </r>
       <r>    -0.5066     0.1165     3.5140 </r>
       <r>    -0.4017     0.5155     3.5681 </r>
       <r>    -0.2969     1.4035     3.7153 </r>
       <r>    -0.1920     2.3807     3.9649 </r>
       <r>    -0.0871     2.5624     4.2336 </r>
       <r>     0.0177     1.8926     4.4321 </r>
       <r>     0.1226     1.3631     4.5750 </r>
       <r>     0.2275     1.4064     4.7225 </r>
       <r>     0.3323     1.3666     4.8658 </r>
       <r>     0.4372     0.8660     4.9566 </r>
       <r>     0.5420     0.3293     4.9911 </r>
       <r>     0.6469     0.0741     4.9989 </r>
       <r>     0.7518     0.0098     4.9999 </r>
       <r>     0.8566     0.0008     5.0000 </r>
       <r>     0.9615     0.0001     5.0000 </r>
       <r>     1.0663     0.0010     5.0001 </r>
       <r>     1.1712     0.0120     5.0014 </r>
       <r>     1.2761     0.0864     5.0104 </r>
       <r>     1.3809     0.3664     5.0488 </r>
       <r>     1.4858     0.9171     5.1450 </r>
       <r>     1.5906     1.3570     5.2873 </r>
       <r>     1.6955     1.1878     5.4119 </r>
       <r>     1.8004     0.6148     5.4763 </r>
       <r>     1.9052     0.1880     5.4960 </r>
       <r>     2.0101     0.0339     5.4996 </r>
       <r>     2.1149     0.0036     5.5000 </r>
       <r>     2.2198     0.0002     5.5000 </r>
       <r>     2.3247     0.0001     5.5000 </r>
       <r>     2.4295     0.0022     5.5002 </r>
       <r>     2.5344     0.0231     5.5027 </r>
       <r>     2.6392     0.1413     5.5175 </r>
       <r>     2.7441     0.5109     5.5711 </r>
       <r>     2.8490     1.0910     5.6855 </r>
       <r>     2.9538     1.3777     5.8299 </r>
       <r>     3.0587     1.0291     5.9378 </r>
       <r>     3.1635     0.4562     5.9857 </r>
       <r>     3.2684     0.1381     6.0002 </r>
       <r>     3.3733     0.1433     6.0152 </r>
       <r>     3.4781     0.4728     6.0648 </r>
       <r>     3.5830     1.0494     6.1748 </r>
       <r>     3.6878     1.3941     6.3210 </r>
       <r>     3.7927     1.1774     6.4444 </r>
       <r>     3.8976     0.9113     6.5400 </r>
       <r>     4.0024     1.1190     6.6573 </r>
       <r>     4.1073     1.3940     6.8035 </r>
       <r>     4.2121     1.1337     6.9224 </r>
       <r>     4.3170     0.5561     6.9807 </r>
       <r>     4.4219     0.2047     7.0022 </r>
       <r>     4.5267     0.3064     7.0343 </r>
       <r>     4.6316     1.0114     7.1404 </r>
       <r>     4.7364     2.1599     7.3668 </r>
       <r>     4.8413     2.7457     7.6548 </r>
       <r>     4.9462     2.0732     7.8722 </r>
       <r>     5.0510     0.9294     7.9696 </r>
       <r>     5.1559     0.2485     7.9957 </r>
       <r>     5.2607     0.0546     8.0014 </r>
       <r>     5.3656     0.1095     8.0129 </r>
       <r>     5.4705     0.4213     8.0571 </r>
       <r>     5.5753     0.9890     8.1608 </r>
       <r>     5.6802     1.3732     8.3048 </r>
       <r>     5.7850     1.1277     8.4230 </r>
       <r>     5.8899     0.5476     8.4804 </r>
       <r>     5.9948     0.1571     8.4969 </r>
       <r>     6.0996     0.0266     8.4997 </r>
       <r>     6.2045     0.0026     8.5000 </r>
       <r>     6.3093     0.0002     8.5000 </r>
       <r>     6.4142     0.0002     8.5000 </r>
       <r>     6.5191     0.0031     8.5003 </r>
       <r>     6.6239     0.0304     8.5035 </r>
       <r>     6.7288     0.1740     8.5218 </r>
       <r>     6.8336     0.5916     8.5838 </r>
       <r>     6.9385     1.2265     8.7124 </r>
       <r>     7.0434     1.6916     8.8898 </r>
       <r>     7.1482     1.9533     9.0946 </r>
       <r>     7.2531     2.3504     9.3411 </r>
       <r>     7.3579     2.6002     9.6137 </r>
       <r>     7.4628     2.2187     9.8464 </r>
       <r>     7.5677     1.6153    10.0158 </r>
       <r>     7.6725     1.4546    10.1683 </r>
       <r>     7.7774     1.4629    10.3217 </r>
       <r>     7.8822     1.0693    10.4338 </r>
       <r>     7.9871     0.4882    10.4850 </r>
       <r>     8.0920     0.1888    10.5048 </r>
       <r>     8.1968     0.3048    10.5368 </r>
       <r>     8.3017     0.7962    10.6203 </r>
       <r>     8.4065     1.3215    10.7588 </r>
       <r>     8.5114     1.3732    10.9028 </r>
       <r>     8.6163     1.1371    11.0221 </r>
       <r>     8.7211     1.2158    11.1496 </r>
       <r>     8.8260     1.4193    11.2984 </r>
       <r>     8.9308     1.1541    11.4194 </r>
       <r>     9.0357     0.5702    11.4792 </r>
       <r>     9.1406     0.1730    11.4973 </r>
       <r>     9.2454     0.0809    11.5058 </r>
       <r>     9.3503     0.2665    11.5338 </r>
       <r>     9.4551     0.8147    11.6192 </r>
       <r>     9.5600     1.6060    11.7876 </r>
       <r>     9.6649     2.1658    12.0147 </r>
       <r>     9.7697     2.1303    12.2381 </r>
       <r>     9.8746     1.5574    12.4014 </r>
       <r>     9.9794     0.9680    12.5029 </r>
       <r>    10.0843     0.9403    12.6015 </r>
       <r>    10.1892     1.3052    12.7384 </r>
       <r>    10.2940     1.3196    12.8767 </r>
       <r>    10.3989     0.8094    12.9616 </r>
       <r>    10.5037     0.2948    12.9925 </r>
       <r>    10.6086     0.0708    13.0000 </r>
       <r>    10.7135     0.0695    13.0073 </r>
       <r>    10.8183     0.2936    13.0380 </r>
       <r>    10.9232     0.8449    13.1266 </r>
       <r>    11.0280     1.5467    13.2888 </r>
       <r>    11.1329     1.9873    13.4972 </r>
       <r>    11.2378     2.0449    13.7117 </r>
       <r>    11.3426     1.8443    13.9050 </r>
       <r>    11.4475     1.6716    14.0803 </r>
       <r>    11.5523     1.7612    14.2650 </r>
       <r>    11.6572     1.8953    14.4638 </r>
       <r>    11.7621     1.8853    14.6614 </r>
       <r>    11.8669     1.6360    14.8330 </r>
       <r>    11.9718     1.0709    14.9453 </r>
       <r>    12.0766     0.5909    15.0073 </r>
       <r>    12.1815     0.6664    15.0771 </r>
       <r>    12.2864     1.1568    15.1984 </r>
       <r>    12.3912     1.3940    15.3446 </r>
       <r>    12.4961     1.1114    15.4612 </r>
       <r>    12.6009     0.9137    15.5570 </r>
       <r>    12.7058     1.2408    15.6871 </r>
       <r>    12.8107     1.6933    15.8646 </r>
       <r>    12.9155     1.8661    16.0603 </r>
       <r>    13.0204     1.7893    16.2479 </r>
       <r>    13.1253     1.3832    16.3930 </r>
       <r>    13.2301     0.7296    16.4695 </r>
       <r>    13.3350     0.2386    16.4945 </r>
       <r>    13.4398     0.0470    16.4994 </r>
       <r>    13.5447     0.0096    16.5004 </r>
       <r>    13.6496     0.0384    16.5044 </r>
       <r>    13.7544     0.2061    16.5261 </r>
       <r>    13.8593     0.6711    16.5964 </r>
       <r>    13.9641     1.3603    16.7391 </r>
       <r>    14.0690     1.8703    16.9352 </r>
       <r>    14.1739     1.9879    17.1436 </r>
       <r>    14.2787     1.7191    17.3239 </r>
       <r>    14.3836     1.0930    17.4385 </r>
       <r>    14.4884     0.4527    17.4860 </r>
       <r>    14.5933     0.1146    17.4980 </r>
       <r>    14.6982     0.0173    17.4998 </r>
       <r>    14.8030     0.0015    17.5000 </r>
       <r>    14.9079     0.0001    17.5000 </r>
       <r>    15.0127     0.0001    17.5000 </r>
       <r>    15.1176     0.0012    17.5001 </r>
       <r>    15.2225     0.0162    17.5018 </r>
       <r>    15.3273     0.1249    17.5149 </r>
       <r>    15.4322     0.5736    17.5751 </r>
       <r>    15.5370     1.5729    17.7400 </r>
       <r>    15.6419     2.5796    18.0105 </r>
       <r>    15.7468     2.5325    18.2761 </r>
       <r>    15.8516     1.4882    18.4321 </r>
       <r>    15.9565     0.5230    18.4869 </r>
       <r>    16.0613     0.1097    18.4985 </r>
       <r>    16.1662     0.0137    18.4999 </r>
       <r>    16.2711     0.0013    18.5000 </r>
       <r>    16.3759     0.0048    18.5005 </r>
       <r>    16.4808     0.0419    18.5049 </r>
       <r>    16.5856     0.2194    18.5279 </r>
       <r>    16.6905     0.6774    18.5990 </r>
       <r>    16.7954     1.2376    18.7287 </r>
       <r>    16.9002     1.3512    18.8704 </r>
       <r>    17.0051     0.9648    18.9716 </r>
       <r>    17.1099     0.7623    19.0515 </r>
       <r>    17.2148     1.0886    19.1657 </r>
       <r>    17.3197     1.4245    19.3150 </r>
       <r>    17.4245     1.3278    19.4543 </r>
       <r>    17.5294     1.3148    19.5921 </r>
       <r>    17.6342     2.0111    19.8030 </r>
       <r>    17.7391     3.0919    20.1272 </r>
       <r>    17.8440     3.5651    20.5011 </r>
       <r>    17.9488     2.8078    20.7955 </r>
       <r>    18.0537     1.4356    20.9460 </r>
       <r>    18.1585     0.5762    21.0065 </r>
       <r>    18.2634     0.6983    21.0797 </r>
       <r>    18.3683     1.6691    21.2547 </r>
       <r>    18.4731     2.6590    21.5335 </r>
       <r>    18.5780     2.5914    21.8053 </r>
       <r>    18.6828     1.8048    21.9945 </r>
       <r>    18.7877     1.5769    22.1599 </r>
       <r>    18.8926     2.0654    22.3765 </r>
       <r>    18.9974     2.3802    22.6260 </r>
       <r>    19.1023     1.9723    22.8329 </r>
       <r>    19.2071     1.1650    22.9550 </r>
       <r>    19.3120     0.7030    23.0287 </r>
       <r>    19.4169     0.9647    23.1299 </r>
       <r>    19.5217     1.6221    23.3000 </r>
       <r>    19.6266     2.0710    23.5172 </r>
       <r>    19.7314     2.0302    23.7300 </r>
       <r>    19.8363     1.5048    23.8878 </r>
       <r>    19.9412     0.7674    23.9683 </r>
       <r>    20.0460     0.2477    23.9943 </r>
       <r>    20.1509     0.0485    23.9994 </r>
       <r>    20.2557     0.0056    24.0000 </r>
       <r>    20.3606     0.0004    24.0000 </r>
       <r>    20.4655     0.0000    24.0000 </r>
       <r>    20.5703     0.0000    24.0000 </r>
       <r>    20.6752     0.0000    24.0000 </r>
       <r>    20.7800     0.0000    24.0000 </r>
       <r>    20.8849     0.0000    24.0000 </r>
       <r>    20.9898     0.0000    24.0000 </r>
       <r>    21.0946     0.0000    24.0000 </r>
       <r>    21.1995     0.0000    24.0000 </r>
       <r>    21.3043     0.0000    24.0000 </r>
       <r>    21.4092     0.0000    24.0000 </r>
       <r>    21.5141     0.0000    24.0000 </r>
       <r>    21.6189     0.0000    24.0000 </r>
       <r>    21.7238     0.0000    24.0000 </r>
      </set>
      <set comment="spin 2">
       <r>    -9.7343     0.0000     0.0000 </r>
       <r>    -9.6294     0.0000     0.0000 </r>
       <r>    -9.5245     0.0000     0.0000 </r>
       <r>    -9.4197     0.0000     0.0000 </r>
       <r>    -9.3148     0.0000     0.0000 </r>
       <r>    -9.2100     0.0000     0.0000 </r>
       <r>    -9.1051     0.0000     0.0000 </r>
       <r>    -9.0002     0.0000     0.0000 </r>
       <r>    -8.8954     0.0000     0.0000 </r>
       <r>    -8.7905     0.0000     0.0000 </r>
       <r>    -8.6857     0.0000     0.0000 </r>
       <r>    -8.5808     0.0000     0.0000 </r>
       <r>    -8.4759     0.0000     0.0000 </r>
       <r>    -8.3711     0.0000     0.0000 </r>
       <r>    -8.2662     0.0004     0.0000 </r>
       <r>    -8.1614     0.0056     0.0006 </r>
       <r>    -8.0565     0.0481     0.0057 </r>
       <r>    -7.9516     0.2422     0.0311 </r>
       <r>    -7.8468     0.7200     0.1066 </r>
       <r>    -7.7419     1.2649     0.2392 </r>
       <r>    -7.6371     1.3144     0.3770 </r>
       <r>    -7.5322     0.8078     0.4617 </r>
       <r>    -7.4273     0.2934     0.4925 </r>
       <r>    -7.3225     0.0629     0.4991 </r>
       <r>    -7.2176     0.0080     0.4999 </r>
       <r>    -7.1128     0.0006     0.5000 </r>
       <r>    -7.0079     0.0001     0.5000 </r>
       <r>    -6.9030     0.0008     0.5001 </r>
       <r>    -6.7982     0.0106     0.5012 </r>
       <r>    -6.6933     0.0783     0.5094 </r>
       <r>    -6.5885     0.3422     0.5453 </r>
       <r>    -6.4836     0.8827     0.6379 </r>
       <r>    -6.3787     1.3459     0.7790 </r>
       <r>    -6.2739     1.2138     0.9063 </r>
       <r>    -6.1690     0.6474     0.9742 </r>
       <r>    -6.0642     0.2040     0.9956 </r>
       <r>    -5.9593     0.0379     0.9995 </r>
       <r>    -5.8544     0.0042     1.0000 </r>
       <r>    -5.7496     0.0003     1.0000 </r>
       <r>    -5.6447     0.0000     1.0000 </r>
       <r>    -5.5399     0.0000     1.0000 </r>
       <r>    -5.4350     0.0000     1.0000 </r>
       <r>    -5.3301     0.0000     1.0000 </r>
       <r>    -5.2253     0.0001     1.0000 </r>
       <r>    -5.1204     0.0012     1.0001 </r>
       <r>    -5.0156     0.0145     1.0017 </r>
       <r>    -4.9107     0.0995     1.0121 </r>
       <r>    -4.8058     0.4037     1.0544 </r>
       <r>    -4.7010     0.9669     1.1558 </r>
       <r>    -4.5961     1.3693     1.2994 </r>
       <r>    -4.4913     1.1475     1.4197 </r>
       <r>    -4.3864     0.5751     1.4800 </r>
       <r>    -4.2815     0.2234     1.5034 </r>
       <r>    -4.1767     0.3026     1.5352 </r>
       <r>    -4.0718     0.7785     1.6168 </r>
       <r>    -3.9670     1.2980     1.7529 </r>
       <r>    -3.8621     1.2845     1.8876 </r>
       <r>    -3.7572     0.7524     1.9665 </r>
       <r>    -3.6524     0.2684     1.9947 </r>
       <r>    -3.5475     0.1183     2.0071 </r>
       <r>    -3.4427     0.3072     2.0393 </r>
       <r>    -3.3378     0.8201     2.1253 </r>
       <r>    -3.2329     1.3200     2.2637 </r>
       <r>    -3.1281     1.2574     2.3955 </r>
       <r>    -3.0232     0.7083     2.4698 </r>
       <r>    -2.9184     0.2358     2.4945 </r>
       <r>    -2.8135     0.0463     2.4994 </r>
       <r>    -2.7086     0.0054     2.5000 </r>
       <r>    -2.6038     0.0004     2.5000 </r>
       <r>    -2.4989     0.0000     2.5000 </r>
       <r>    -2.3941     0.0000     2.5000 </r>
       <r>    -2.2892     0.0000     2.5000 </r>
       <r>    -2.1843     0.0001     2.5000 </r>
       <r>    -2.0795     0.0012     2.5001 </r>
       <r>    -1.9746     0.0154     2.5017 </r>
       <r>    -1.8698     0.1204     2.5144 </r>
       <r>    -1.7649     0.5597     2.5731 </r>
       <r>    -1.6600     1.5517     2.7358 </r>
       <r>    -1.5552     2.5706     3.0053 </r>
       <r>    -1.4503     2.5466     3.2724 </r>
       <r>    -1.3455     1.5088     3.4306 </r>
       <r>    -1.2406     0.5341     3.4866 </r>
       <r>    -1.1357     0.1128     3.4984 </r>
       <r>    -1.0309     0.0142     3.4999 </r>
       <r>    -0.9260     0.0011     3.5000 </r>
       <r>    -0.8212     0.0001     3.5000 </r>
       <r>    -0.7163     0.0013     3.5001 </r>
       <r>    -0.6114     0.0160     3.5018 </r>
       <r>    -0.5066     0.1165     3.5140 </r>
       <r>    -0.4017     0.5155     3.5681 </r>
       <r>    -0.2969     1.4035     3.7153 </r>
       <r>    -0.1920     2.3807     3.9649 </r>
       <r>    -0.0871     2.5624     4.2336 </r>
       <r>     0.0177     1.8926     4.4321 </r>
       <r>     0.1226     1.3631     4.5750 </r>
       <r>     0.2275     1.4064     4.7225 </r>
       <r>     0.3323     1.3666     4.8658 </r>
       <r>     0.4372     0.8660     4.9566 </r>
       <r>     0.5420     0.3293     4.9911 </r>
       <r>     0.6469     0.0741     4.9989 </r>
       <r>     0.7518     0.0098     4.9999 </r>
       <r>     0.8566     0.0008     5.0000 </r>
       <r>     0.9615     0.0001     5.0000 </r>
       <r>     1.0663     0.0010     5.0001 </r>
       <r>     1.1712     0.0120     5.0014 </r>
       <r>     1.2761     0.0864     5.0104 </r>
       <r>     1.3809     0.3664     5.0488 </r>
       <r>     1.4858     0.9171     5.1450 </r>
       <r>     1.5906     1.3570     5.2873 </r>
       <r>     1.6955     1.1878     5.4119 </r>
       <r>     1.8004     0.6148     5.4763 </r>
       <r>     1.9052     0.1880     5.4960 </r>
       <r>     2.0101     0.0339     5.4996 </r>
       <r>     2.1149     0.0036     5.5000 </r>
       <r>     2.2198     0.0002     5.5000 </r>
       <r>     2.3247     0.0001     5.5000 </r>
       <r>     2.4295     0.0022     5.5002 </r>
       <r>     2.5344     0.0231     5.5027 </r>
       <r>     2.6392     0.1413     5.5175 </r>
       <r>     2.7441     0.5109     5.5711 </r>
       <r>     2.8490     1.0910     5.6855 </r>
       <r>     2.9538     1.3777     5.8299 </r>
       <r>     3.0587     1.0291     5.9378 </r>
       <r>     3.1635     0.4562     5.9857 </r>
       <r>     3.2684     0.1381     6.0002 </r>
       <r>     3.3733     0.1433     6.0152 </r>
       <r>     3.4781     0.4728     6.0648 </r>
       <r>     3.5830     1.0494     6.1748 </r>
       <r>     3.6878     1.3941     6.3210 </r>
       <r>     3.7927     1.1774     6.4444 </r>
       <r>     3.8976     0.9113     6.5400 </r>
       <r>     4.0024     1.1190     6.6573 </r>
       <r>     4.1073     1.3940     6.8035 </r>
       <r>     4.2121     1.1337     6.9224 </r>
       <r>     4.3170     0.5561     6.9807 </r>
       <r>     4.4219     0.2047     7.0022 </r>
       <r>     4.5267     0.3064     7.0343 </r>
       <r>     4.6316     1.0114     7.1404 </r>
       <r>     4.7364     2.1599     7.3668 </r>
       <r>     4.8413     2.7457     7.6548 </r>
       <r>     4.9462     2.0732     7.8722 </r>
       <r>     5.0510     0.9294     7.9696 </r>
       <r>     5.1559     0.2485     7.9957 </r>
       <r>     5.2607     0.0546     8.0014 </r>
       <r>     5.3656     0.1095     8.0129 </r>
       <r>     5.4705     0.4213     8.0571 </r>
       <r>     5.5753     0.9890     8.1608 </r>
       <r>     5.6802     1.3732     8.3048 </r>
       <r>     5.7850     1.1277     8.4230 </r>
       <r>     5.8899     0.5476     8.4804 </r>
       <r>     5.9948     0.1571     8.4969 </r>
       <r>     6.0996     0.0266     8.4997 </r>
       <r>     6.2045     0.0026     8.5000 </r>
       <r>     6.3093     0.0002     8.5000 </r>
       <r>     6.4142     0.0002     8.5000 </r>
       <r>     6.5191     0.0031     8.5003 </r>
       <r>     6.6239     0.0304     8.5035 </r>
       <r>     6.7288     0.1740     8.5218 </r>
       <r>     6.8336     0.5916     8.5838 </r>
       <r>     6.9385     1.2265     8.7124 </r>
       <r>     7.0434     1.6916     8.8898 </r>
       <r>     7.1482     1.9533     9.0946 </r>
       <r>     7.2531     2.3504     9.3411 </r>
       <r>     7.3579     2.6002     9.6137 </r>
       <r>     7.4628     2.2187     9.8464 </r>
       <r>     7.5677     1.6153    10.0158 </r>
       <r>     7.6725     1.4546    10.1683 </r>
       <r>     7.7774     1.4629    10.3217 </r>
       <r>     7.8822     1.0693    10.4338 </r>
       <r>     7.9871     0.4882    10.4850 </r>
       <r>     8.0920     0.1888    10.5048 </r>
       <r>     8.1968     0.3048    10.5368 </r>
       <r>     8.3017     0.7962    10.6203 </r>
       <r>     8.4065     1.3215    10.7588 </r>
       <r>     8.5114     1.3732    10.9028 </r>
       <r>     8.6163     1.1371    11.0221 </r>
       <r>     8.7211     1.2158    11.1496 </r>
       <r>     8.8260     1.4193    11.2984 </r>
       <r>     8.9308     1.1541    11.4194 </r>
       <r>     9.0357     0.5702    11.4792 </r>
       <r>     9.1406     0.1730    11.4973 </r>
       <r>     9.2454     0.0809    11.5058 </r>
       <r>     9.3503     0.2665    11.5338 </r>
       <r>     9.4551     0.8147    11.6192 </r>
       <r>     9.5600     1.6060    11.7876 </r>
       <r>     9.6649     2.1658    12.0147 </r>
       <r>     9.7697     2.1303    12.2381 </r>
       <r>     9.8746     1.5574    12.4014 </r>
       <r>     9.9794     0.9680    12.5029 </r>
       <r>    10.0843     0.9403    12.6015 </r>
       <r>    10.1892     1.3052    12.7384 </r>
       <r>    10.2940     1.3196    12.8767 </r>
       <r>    10.3989     0.8094    12.9616 </r>
       <r>    10.5037     0.2948    12.9925 </r>
       <r>    10.6086     0.0708    13.0000 </r>
       <r>    10.7135     0.0695    13.0073 </r>
       <r>    10.8183     0.2936    13.0380 </r>
       <r>    10.9232     0.8449    13.1266 </r>
       <r>    11.0280     1.5467    13.2888 </r>
       <r>    11.1329     1.9873    13.4972 </r>
       <r>    11.2378     2.0449    13.7117 </r>
       <r>    11.3426     1.8443    13.9050 </r>
       <r>    11.4475     1.6716    14.0803 </r>
       <r>    11.5523     1.7612    14.2650 </r>
       <r>    11.6572     1.8953    14.4638 </r>
       <r>    11.7621     1.8853    14.6614 </r>
       <r>    11.8669     1.6360    14.8330 </r>
       <r>    11.9718     1.0709    14.9453 </r>
       <r>    12.0766     0.5909    15.0073 </r>
       <r>    12.1815     0.6664    15.0771 </r>
       <r>    12.2864     1.1568    15.1984 </r>
       <r>    12.3912     1.3940    15.3446 </r>
       <r>    12.4961     1.1114    15.4612 </r>
       <r>    12.6009     0.9137    15.5570 </r>
       <r>    12.7058     1.2408    15.6871 </r>
       <r>    12.8107     1.6933    15.8646 </r>
       <r>    12.9155     1.8661    16.0603 </r>
       <r>    13.0204     1.7893    16.2479 </r>
       <r>    13.1253     1.3832    16.3930 </r>
       <r>    13.2301     0.7296    16.4695 </r>
       <r>    13.3350     0.2386    16.4945 </r>
       <r>    13.4398     0.0470    16.4994 </r>
       <r>    13.5447     0.0096    16.5004 </r>
       <r>    13.6496     0.0384    16.5044 </r>
       <r>    13.7544     0.2061    16.5261 </r>
       <r>    13.8593     0.6711    16.5964 </r>
       <r>    13.9641     1.3603    16.7391 </r>
       <r>    14.0690     1.8703    16.9352 </r>
       <r>    14.1739     1.9879    17.1436 </r>
       <r>    14.2787     1.7191    17.3239 </r>
       <r>    14.3836     1.0930    17.4385 </r>
       <r>    14.4884     0.4527    17.4860 </r>
       <r>    14.5933     0.1146    17.4980 </r>
       <r>    14.6982     0.0173    17.4998 </r>
       <r>    14.8030     0.0015    17.5000 </r>
       <r>    14.9079     0.0001    17.5000 </r>
       <r>    15.0127     0.0001    17.5000 </r>
       <r>    15.1176     0.0012    17.5001 </r>
       <r>    15.2225     0.0162    17.5018 </r>
       <r>    15.3273     0.1249    17.5149 </r>
       <r>    15.4322     0.5736    17.5751 </r>
       <r>    15.5370     1.5729    17.7400 </r>
       <r>    15.6419     2.5796    18.0105 </r>
       <r>    15.7468     2.5325    18.2761 </r>
       <r>    15.8516     1.4882    18.4321 </r>
       <r>    15.9565     0.5230    18.4869 </r>
       <r>    16.0613     0.1097    18.4985 </r>
       <r>    16.1662     0.0137    18.4999 </r>
       <r>    16.2711     0.0013    18.5000 </r>
       <r>    16.3759     0.0048    18.5005 </r>
       <r>    16.4808     0.0419    18.5049 </r>
       <r>    16.5856     0.2194    18.5279 </r>
       <r>    16.6905     0.6774    18.5990 </r>
       <r>    16.7954     1.2376    18.7287 </r>
       <r>    16.9002     1.3512    18.8704 </r>
       <r>    17.0051     0.9648    18.9716 </r>
       <r>    17.1099     0.7623    19.0515 </r>
       <r>    17.2148     1.0886    19.1657 </r>
       <r>    17.3197     1.4245    19.3150 </r>
       <r>    17.4245     1.3278    19.4543 </r>
       <r>    17.5294     1.3148    19.5921 </r>
       <r>    17.6342     2.0111    19.8030 </r>
       <r>    17.7391     3.0919    20.1272 </r>
       <r>    17.8440     3.5651    20.5011 </r>
       <r>    17.9488     2.8078    20.7955 </r>
       <r>    18.0537     1.4356    20.9460 </r>
       <r>    18.1585     0.5762    21.0065 </r>
       <r>    18.2634     0.6983    21.0797 </r>
       <r>    18.3683     1.6691    21.2547 </r>
       <r>    18.4731     2.6590    21.5335 </r>
       <r>    18.5780     2.5914    21.8053 </r>
       <r>    18.6828     1.8048    21.9945 </r>
       <r>    18.7877     1.5769    22.1599 </r>
       <r>    18.8926     2.0654    22.3765 </r>
       <r>    18.9974     2.3802    22.6260 </r>
       <r>    19.1023     1.9723    22.8329 </r>
       <r>    19.2071     1.1650    22.9550 </r>
       <r>    19.3120     0.7030    23.0287 </r>
       <r>    19.4169     0.9647    23.1299 </r>
       <r>    19.5217     1.6221    23.3000 </r>
       <r>    19.6266     2.0710    23.5172 </r>
       <r>    19.7314     2.0302    23.7300 </r>
       <r>    19.8363     1.5048    23.8878 </r>
       <r>    19.9412     0.7674    23.9683 </r>
       <r>    20.0460     0.2477    23.9943 </r>
       <r>    20.1509     0.0485    23.9994 </r>
       <r>    20.2557     0.0056    24.0000 </r>
       <r>    20.3606     0.0004    24.0000 </r>
       <r>    20.4655     0.0000    24.0000 </r>
       <r>    20.5703     0.0000    24.0000 </r>
       <r>    20.6752     0.0000    24.0000 </r>
       <r>    20.7800     0.0000    24.0000 </r>
       <r>    20.8849     0.0000    24.0000 </r>
       <r>    20.9898     0.0000    24.0000 </r>
       <r>    21.0946     0.0000    24.0000 </r>
       <r>    21.1995     0.0000    24.0000 </r>
       <r>    21.3043     0.0000    24.0000 </r>
       <r>    21.4092     0.0000    24.0000 </r>
       <r>    21.5141     0.0000    24.0000 </r>
       <r>    21.6189     0.0000    24.0000 </r>
       <r>    21.7238     0.0000    24.0000 </r>
      </set>
     </set>
    </array>
   </total>
   <partial>
    <array>
     <dimension dim="1">gridpoints</dimension>
     <dimension dim="2">spin</dimension>
     <dimension dim="3">ion</dimension>
     <field>energy</field>
     <field>  s</field>
     <field> py</field>
     <field> pz</field>
     <field> px</field>
     <field>dxy</field>
     <field>dyz</field>
     <field>dz2</field>
     <field>dxz</field>
     <field>dx2</field>
     <set>
      <set comment="ion 1">
       <set comment="spin 1">
        <r>    -9.7343     0.0000     0.0000     0.0000     0.0000     0.0000     0.0000     0.0000     0.0000     0.0000 </r>
        <r>    -9.6294     0.0000     0.0000     0.0000     0.0000     0.0000     0.0000     0.0000     0.0000     0.0000 </r>
        <r>    -9.5245     0.0000     0.0000     0.0000     0.0000     0.0000     0.0000     0.0000     0.0000     0.0000 </r>
        <r>    -9.4197     0.0000     0.0000     0.0000     0.0000     0.0000     0.0000     0.0000     0.0000     0.0000 </r>
        <r>    -9.3148     0.0000     0.0000     0.0000     0.0000     0.0000     0.0000     0.0000     0.0000     0.0000 </r>
        <r>    -9.2100     0.0000     0.0000     0.0000     0.0000     0.0000     0.0000     0.0000     0.0000     0.0000 </r>
        <r>    -9.1051     0.0000     0.0000     0.0000     0.0000     0.0000     0.0000     0.0000     0.0000     0.0000 </r>
        <r>    -9.0002     0.0000     0.0000     0.0000     0.0000     0.0000     0.0000     0.0000     0.0000     0.0000 </r>
        <r>    -8.8954     0.0000     0.0000     0.0000     0.0000     0.0000     0.0000     0.0000     0.0000     0.0000 </r>
        <r>    -8.7905     0.0000     0.0000     0.0000     0.0000     0.0000     0.0000     0.0000     0.0000     0.0000 </r>
        <r>    -8.6857     0.0000     0.0000     0.0000     0.0000     0.0000     0.0000     0.0000     0.0000     0.0000 </r>
        <r>    -8.5808     0.0000     0.0000     0.0000     0.0000     0.0000     0.0000     0.0000     0.0000     0.0000 </r>
        <r>    -8.4759     0.0000     0.0000     0.0000     0.0000     0.0000     0.0000     0.0000     0.0000     0.0000 </r>
        <r>    -8.3711     0.0000     0.0000     0.0000     0.0000     0.0000     0.0000     0.0000     0.0000     0.0000 </r>
        <r>    -8.2662     0.0001     0.0000     0.0000     0.0000     0.0000     0.0000     0.0000     0.0000     0.0000 </r>
        <r>    -8.1614     0.0010     0.0000     0.0000     0.0000     0.0000     0.0000     0.0000     0.0000     0.0000 </r>
        <r>    -8.0565     0.0087     0.0001     0.0004     0.0004     0.0000     0.0000     0.0000     0.0000     0.0000 </r>
        <r>    -7.9516     0.0437     0.0006     0.0021     0.0018     0.0001     0.0000     0.0000     0.0000     0.0000 </r>
        <r>    -7.8468     0.1298     0.0019     0.0062     0.0054     0.0003     0.0000     0.0000     0.0001     0.0001 </r>
        <r>    -7.7419     0.2280     0.0033     0.0109     0.0095     0.0006     0.0001     0.0001     0.0002     0.0002 </r>
        <r>    -7.6371     0.2369     0.0034     0.0113     0.0098     0.0006     0.0001     0.0001     0.0002     0.0002 </r>
        <r>    -7.5322     0.1456     0.0021     0.0069     0.0060     0.0004     0.0001     0.0000     0.0002     0.0001 </r>
        <r>    -7.4273     0.0529     0.0008     0.0025     0.0022     0.0001     0.0000     0.0000     0.0001     0.0000 </r>
        <r>    -7.3225     0.0113     0.0002     0.0005     0.0005     0.0000     0.0000     0.0000     0.0000     0.0000 </r>
        <r>    -7.2176     0.0014     0.0000     0.0001     0.0001     0.0000     0.0000     0.0000     0.0000     0.0000 </r>
        <r>    -7.1128     0.0001     0.0000     0.0000     0.0000     0.0000     0.0000     0.0000     0.0000     0.0000 </r>
        <r>    -7.0079     0.0000     0.0000     0.0000     0.0000     0.0000     0.0000     0.0000     0.0000     0.0000 </r>
        <r>    -6.9030     0.0001     0.0000     0.0000     0.0000     0.0000     0.0000     0.0000     0.0000     0.0000 </r>
        <r>    -6.7982     0.0017     0.0002     0.0001     0.0001     0.0000     0.0000     0.0000     0.0000     0.0000 </r>
        <r>    -6.6933     0.0128     0.0017     0.0005     0.0006     0.0000     0.0000     0.0000     0.0000     0.0000 </r>
        <r>    -6.5885     0.0561     0.0074     0.0022     0.0025     0.0001     0.0002     0.0000     0.0001     0.0001 </r>
        <r>    -6.4836     0.1447     0.0190     0.0057     0.0064     0.0004     0.0005     0.0001     0.0004     0.0004 </r>
        <r>    -6.3787     0.2206     0.0290     0.0088     0.0098     0.0006     0.0008     0.0001     0.0006     0.0005 </r>
        <r>    -6.2739     0.1989     0.0261     0.0079     0.0088     0.0005     0.0007     0.0001     0.0005     0.0005 </r>
        <r>    -6.1690     0.1061     0.0139     0.0042     0.0047     0.0003     0.0004     0.0000     0.0003     0.0003 </r>
        <r>    -6.0642     0.0334     0.0044     0.0013     0.0015     0.0001     0.0001     0.0000     0.0001     0.0001 </r>
        <r>    -5.9593     0.0062     0.0008     0.0002     0.0003     0.0000     0.0000     0.0000     0.0000     0.0000 </r>
        <r>    -5.8544     0.0007     0.0001     0.0000     0.0000     0.0000     0.0000     0.0000     0.0000     0.0000 </r>
        <r>    -5.7496     0.0000     0.0000     0.0000     0.0000     0.0000     0.0000     0.0000     0.0000     0.0000 </r>
        <r>    -5.6447     0.0000     0.0000     0.0000     0.0000     0.0000     0.0000     0.0000     0.0000     0.0000 </r>
        <r>    -5.5399     0.0000     0.0000     0.0000     0.0000     0.0000     0.0000     0.0000     0.0000     0.0000 </r>
        <r>    -5.4350     0.0000     0.0000     0.0000     0.0000     0.0000     0.0000     0.0000     0.0000     0.0000 </r>
        <r>    -5.3301     0.0000     0.0000     0.0000     0.0000     0.0000     0.0000     0.0000     0.0000     0.0000 </r>
        <r>    -5.2253     0.0000     0.0000     0.0000     0.0000     0.0000     0.0000     0.0000     0.0000     0.0000 </r>
        <r>    -5.1204     0.0002     0.0000     0.0000     0.0000     0.0000     0.0000     0.0000     0.0000     0.0000 </r>
        <r>    -5.0156     0.0021     0.0005     0.0001     0.0003     0.0000     0.0000     0.0000     0.0000     0.0000 </r>
        <r>    -4.9107     0.0144     0.0034     0.0008     0.0019     0.0001     0.0000     0.0001     0.0001     0.0002 </r>
        <r>    -4.8058     0.0586     0.0138     0.0032     0.0079     0.0003     0.0001     0.0004     0.0006     0.0006 </r>
        <r>    -4.7010     0.1403     0.0332     0.0077     0.0189     0.0008     0.0003     0.0010     0.0013     0.0015 </r>
        <r>    -4.5961     0.1987     0.0470     0.0109     0.0268     0.0011     0.0005     0.0014     0.0019     0.0021 </r>
        <r>    -4.4913     0.1665     0.0393     0.0091     0.0225     0.0009     0.0004     0.0011     0.0016     0.0018 </r>
        <r>    -4.3864     0.0836     0.0195     0.0048     0.0112     0.0005     0.0002     0.0006     0.0008     0.0009 </r>
        <r>    -4.2815     0.0337     0.0058     0.0041     0.0036     0.0001     0.0001     0.0003     0.0004     0.0003 </r>
        <r>    -4.1767     0.0502     0.0015     0.0135     0.0021     0.0000     0.0003     0.0006     0.0007     0.0001 </r>
        <r>    -4.0718     0.1308     0.0016     0.0375     0.0045     0.0001     0.0007     0.0017     0.0020     0.0000 </r>
        <r>    -3.9670     0.2182     0.0026     0.0626     0.0074     0.0001     0.0012     0.0028     0.0033     0.0000 </r>
        <r>    -3.8621     0.2160     0.0025     0.0620     0.0073     0.0001     0.0011     0.0028     0.0033     0.0000 </r>
        <r>    -3.7572     0.1265     0.0015     0.0363     0.0043     0.0000     0.0007     0.0016     0.0019     0.0000 </r>
        <r>    -3.6524     0.0451     0.0005     0.0127     0.0017     0.0000     0.0003     0.0006     0.0007     0.0000 </r>
        <r>    -3.5475     0.0195     0.0001     0.0034     0.0022     0.0000     0.0003     0.0001     0.0002     0.0001 </r>
        <r>    -3.4427     0.0500     0.0001     0.0042     0.0088     0.0002     0.0013     0.0002     0.0001     0.0004 </r>
        <r>    -3.3378     0.1334     0.0001     0.0105     0.0238     0.0005     0.0036     0.0004     0.0003     0.0012 </r>
        <r>    -3.2329     0.2147     0.0002     0.0169     0.0383     0.0008     0.0057     0.0007     0.0005     0.0019 </r>
        <r>    -3.1281     0.2045     0.0002     0.0161     0.0365     0.0008     0.0055     0.0007     0.0004     0.0019 </r>
        <r>    -3.0232     0.1152     0.0001     0.0091     0.0206     0.0004     0.0031     0.0004     0.0003     0.0010 </r>
        <r>    -2.9184     0.0384     0.0000     0.0030     0.0068     0.0001     0.0010     0.0001     0.0001     0.0003 </r>
        <r>    -2.8135     0.0075     0.0000     0.0006     0.0013     0.0000     0.0002     0.0000     0.0000     0.0001 </r>
        <r>    -2.7086     0.0009     0.0000     0.0001     0.0002     0.0000     0.0000     0.0000     0.0000     0.0000 </r>
        <r>    -2.6038     0.0001     0.0000     0.0000     0.0000     0.0000     0.0000     0.0000     0.0000     0.0000 </r>
        <r>    -2.4989     0.0000     0.0000     0.0000     0.0000     0.0000     0.0000     0.0000     0.0000     0.0000 </r>
        <r>    -2.3941     0.0000     0.0000     0.0000     0.0000     0.0000     0.0000     0.0000     0.0000     0.0000 </r>
        <r>    -2.2892     0.0000     0.0000     0.0000     0.0000     0.0000     0.0000     0.0000     0.0000     0.0000 </r>
        <r>    -2.1843     0.0000     0.0000     0.0000     0.0000     0.0000     0.0000     0.0000     0.0000     0.0000 </r>
        <r>    -2.0795     0.0001     0.0000     0.0000     0.0001     0.0000     0.0000     0.0000     0.0000     0.0000 </r>
        <r>    -1.9746     0.0010     0.0004     0.0003     0.0008     0.0000     0.0000     0.0000     0.0000     0.0000 </r>
        <r>    -1.8698     0.0076     0.0029     0.0025     0.0058     0.0002     0.0000     0.0001     0.0002     0.0001 </r>
        <r>    -1.7649     0.0352     0.0140     0.0128     0.0264     0.0010     0.0002     0.0003     0.0010     0.0005 </r>
        <r>    -1.6600     0.0969     0.0399     0.0393     0.0714     0.0026     0.0006     0.0008     0.0031     0.0014 </r>
        <r>    -1.5552     0.1591     0.0681     0.0717     0.1154     0.0039     0.0010     0.0014     0.0057     0.0023 </r>
        <r>    -1.4503     0.1562     0.0696     0.0776     0.1114     0.0035     0.0011     0.0015     0.0062     0.0023 </r>
        <r>    -1.3455     0.0917     0.0424     0.0499     0.0643     0.0019     0.0007     0.0010     0.0040     0.0013 </r>
        <r>    -1.2406     0.0322     0.0154     0.0190     0.0222     0.0006     0.0003     0.0004     0.0015     0.0005 </r>
        <r>    -1.1357     0.0067     0.0033     0.0043     0.0046     0.0001     0.0001     0.0001     0.0003     0.0001 </r>
        <r>    -1.0309     0.0008     0.0004     0.0006     0.0006     0.0000     0.0000     0.0000     0.0000     0.0000 </r>
        <r>    -0.9260     0.0001     0.0000     0.0000     0.0000     0.0000     0.0000     0.0000     0.0000     0.0000 </r>
        <r>    -0.8212     0.0000     0.0000     0.0000     0.0000     0.0000     0.0000     0.0000     0.0000     0.0000 </r>
        <r>    -0.7163     0.0001     0.0001     0.0001     0.0000     0.0000     0.0000     0.0000     0.0000     0.0000 </r>
        <r>    -0.6114     0.0008     0.0008     0.0012     0.0002     0.0000     0.0001     0.0000     0.0000     0.0000 </r>
        <r>    -0.5066     0.0063     0.0053     0.0084     0.0017     0.0002     0.0005     0.0001     0.0002     0.0003 </r>
        <r>    -0.4017     0.0315     0.0220     0.0355     0.0080     0.0014     0.0019     0.0007     0.0011     0.0013 </r>
        <r>    -0.2969     0.0993     0.0543     0.0905     0.0237     0.0050     0.0046     0.0024     0.0028     0.0037 </r>
        <r>    -0.1920     0.1956     0.0812     0.1406     0.0445     0.0111     0.0068     0.0053     0.0047     0.0065 </r>
        <r>    -0.0871     0.2390     0.0780     0.1349     0.0536     0.0147     0.0061     0.0069     0.0050     0.0073 </r>
        <r>     0.0177     0.1791     0.0685     0.0807     0.0474     0.0119     0.0040     0.0055     0.0035     0.0057 </r>
        <r>     0.1226     0.0815     0.1024     0.0303     0.0475     0.0063     0.0034     0.0026     0.0021     0.0048 </r>
        <r>     0.2275     0.0223     0.1664     0.0071     0.0613     0.0031     0.0046     0.0007     0.0018     0.0055 </r>
        <r>     0.3323     0.0036     0.1787     0.0010     0.0627     0.0019     0.0048     0.0001     0.0017     0.0055 </r>
        <r>     0.4372     0.0004     0.1150     0.0001     0.0400     0.0011     0.0031     0.0000     0.0011     0.0035 </r>
        <r>     0.5420     0.0000     0.0438     0.0000     0.0152     0.0004     0.0012     0.0000     0.0004     0.0013 </r>
        <r>     0.6469     0.0000     0.0099     0.0000     0.0034     0.0001     0.0003     0.0000     0.0001     0.0003 </r>
        <r>     0.7518     0.0000     0.0013     0.0000     0.0005     0.0000     0.0000     0.0000     0.0000     0.0000 </r>
        <r>     0.8566     0.0000     0.0001     0.0000     0.0000     0.0000     0.0000     0.0000     0.0000     0.0000 </r>
        <r>     0.9615     0.0000     0.0000     0.0000     0.0000     0.0000     0.0000     0.0000     0.0000     0.0000 </r>
        <r>     1.0663     0.0000     0.0000     0.0000     0.0001     0.0000     0.0000     0.0000     0.0000     0.0000 </r>
        <r>     1.1712     0.0002     0.0005     0.0004     0.0011     0.0000     0.0000     0.0000     0.0000     0.0000 </r>
        <r>     1.2761     0.0015     0.0035     0.0026     0.0082     0.0002     0.0001     0.0002     0.0003     0.0000 </r>
        <r>     1.3809     0.0062     0.0149     0.0111     0.0346     0.0009     0.0006     0.0007     0.0015     0.0000 </r>
        <r>     1.4858     0.0154     0.0373     0.0279     0.0865     0.0023     0.0014     0.0016     0.0037     0.0001 </r>
        <r>     1.5906     0.0228     0.0552     0.0413     0.1280     0.0033     0.0021     0.0024     0.0054     0.0001 </r>
        <r>     1.6955     0.0200     0.0483     0.0361     0.1121     0.0029     0.0018     0.0021     0.0047     0.0001 </r>
        <r>     1.8004     0.0103     0.0250     0.0187     0.0580     0.0015     0.0009     0.0011     0.0025     0.0001 </r>
        <r>     1.9052     0.0032     0.0077     0.0057     0.0177     0.0005     0.0003     0.0003     0.0008     0.0000 </r>
        <r>     2.0101     0.0006     0.0014     0.0010     0.0032     0.0001     0.0001     0.0001     0.0001     0.0000 </r>
        <r>     2.1149     0.0001     0.0001     0.0001     0.0003     0.0000     0.0000     0.0000     0.0000     0.0000 </r>
        <r>     2.2198     0.0000     0.0000     0.0000     0.0000     0.0000     0.0000     0.0000     0.0000     0.0000 </r>
        <r>     2.3247     0.0000     0.0000     0.0000     0.0000     0.0000     0.0000     0.0000     0.0000     0.0000 </r>
        <r>     2.4295     0.0000     0.0001     0.0001     0.0002     0.0000     0.0000     0.0000     0.0000     0.0000 </r>
        <r>     2.5344     0.0002     0.0007     0.0013     0.0019     0.0001     0.0000     0.0001     0.0001     0.0000 </r>
        <r>     2.6392     0.0013     0.0041     0.0078     0.0117     0.0009     0.0003     0.0008     0.0007     0.0003 </r>
        <r>     2.7441     0.0048     0.0147     0.0283     0.0422     0.0032     0.0009     0.0031     0.0026     0.0010 </r>
        <r>     2.8490     0.0103     0.0313     0.0604     0.0902     0.0068     0.0019     0.0066     0.0056     0.0021 </r>
        <r>     2.9538     0.0130     0.0396     0.0763     0.1138     0.0086     0.0025     0.0083     0.0071     0.0026 </r>
        <r>     3.0587     0.0097     0.0296     0.0570     0.0850     0.0065     0.0018     0.0062     0.0053     0.0020 </r>
        <r>     3.1635     0.0043     0.0131     0.0254     0.0376     0.0029     0.0008     0.0027     0.0023     0.0009 </r>
        <r>     3.2684     0.0014     0.0034     0.0090     0.0099     0.0009     0.0003     0.0009     0.0007     0.0003 </r>
        <r>     3.3733     0.0020     0.0008     0.0165     0.0023     0.0011     0.0003     0.0011     0.0008     0.0003 </r>
        <r>     3.4781     0.0068     0.0010     0.0583     0.0029     0.0036     0.0010     0.0038     0.0027     0.0011 </r>
        <r>     3.5830     0.0151     0.0023     0.1295     0.0063     0.0080     0.0021     0.0084     0.0061     0.0025 </r>
        <r>     3.6878     0.0198     0.0048     0.1704     0.0089     0.0105     0.0031     0.0110     0.0081     0.0033 </r>
        <r>     3.7927     0.0154     0.0156     0.1326     0.0110     0.0083     0.0042     0.0086     0.0069     0.0029 </r>
        <r>     3.8976     0.0071     0.0545     0.0610     0.0215     0.0043     0.0090     0.0039     0.0056     0.0028 </r>
        <r>     4.0024     0.0019     0.1263     0.0166     0.0446     0.0022     0.0190     0.0011     0.0073     0.0041 </r>
        <r>     4.1073     0.0003     0.1757     0.0027     0.0612     0.0018     0.0262     0.0002     0.0092     0.0054 </r>
        <r>     4.2121     0.0001     0.1448     0.0003     0.0504     0.0014     0.0216     0.0000     0.0075     0.0044 </r>
        <r>     4.3170     0.0006     0.0706     0.0003     0.0247     0.0007     0.0105     0.0000     0.0037     0.0021 </r>
        <r>     4.4219     0.0065     0.0207     0.0024     0.0083     0.0004     0.0032     0.0001     0.0012     0.0007 </r>
        <r>     4.5267     0.0390     0.0058     0.0147     0.0085     0.0013     0.0015     0.0008     0.0011     0.0006 </r>
        <r>     4.6316     0.1383     0.0090     0.0526     0.0268     0.0049     0.0037     0.0029     0.0033     0.0020 </r>
        <r>     4.7364     0.2909     0.0186     0.1118     0.0577     0.0110     0.0082     0.0064     0.0068     0.0044 </r>
        <r>     4.8413     0.3633     0.0237     0.1410     0.0741     0.0145     0.0107     0.0084     0.0083     0.0059 </r>
        <r>     4.9462     0.2693     0.0180     0.1056     0.0564     0.0114     0.0084     0.0065     0.0060     0.0046 </r>
        <r>     5.0510     0.1185     0.0081     0.0470     0.0255     0.0053     0.0039     0.0030     0.0026     0.0022 </r>
        <r>     5.1559     0.0309     0.0022     0.0124     0.0070     0.0015     0.0011     0.0008     0.0007     0.0006 </r>
        <r>     5.2607     0.0049     0.0006     0.0021     0.0024     0.0004     0.0002     0.0002     0.0003     0.0003 </r>
        <r>     5.3656     0.0016     0.0017     0.0015     0.0089     0.0009     0.0005     0.0003     0.0014     0.0014 </r>
        <r>     5.4705     0.0045     0.0065     0.0052     0.0349     0.0035     0.0020     0.0010     0.0054     0.0057 </r>
        <r>     5.5753     0.0105     0.0152     0.0123     0.0819     0.0081     0.0046     0.0023     0.0126     0.0134 </r>
        <r>     5.6802     0.0145     0.0211     0.0171     0.1137     0.0113     0.0064     0.0032     0.0175     0.0186 </r>
        <r>     5.7850     0.0119     0.0173     0.0140     0.0934     0.0093     0.0052     0.0026     0.0143     0.0153 </r>
        <r>     5.8899     0.0058     0.0084     0.0068     0.0453     0.0045     0.0025     0.0013     0.0070     0.0074 </r>
        <r>     5.9948     0.0017     0.0024     0.0020     0.0130     0.0013     0.0007     0.0004     0.0020     0.0021 </r>
        <r>     6.0996     0.0003     0.0004     0.0003     0.0022     0.0002     0.0001     0.0001     0.0003     0.0004 </r>
        <r>     6.2045     0.0000     0.0000     0.0000     0.0002     0.0000     0.0000     0.0000     0.0000     0.0000 </r>
        <r>     6.3093     0.0000     0.0000     0.0000     0.0000     0.0000     0.0000     0.0000     0.0000     0.0000 </r>
        <r>     6.4142     0.0000     0.0000     0.0000     0.0000     0.0000     0.0000     0.0000     0.0000     0.0000 </r>
        <r>     6.5191     0.0001     0.0001     0.0002     0.0000     0.0000     0.0000     0.0001     0.0000     0.0000 </r>
        <r>     6.6239     0.0007     0.0008     0.0021     0.0000     0.0002     0.0001     0.0007     0.0002     0.0002 </r>
        <r>     6.7288     0.0039     0.0047     0.0121     0.0003     0.0009     0.0006     0.0038     0.0013     0.0009 </r>
        <r>     6.8336     0.0132     0.0161     0.0410     0.0013     0.0031     0.0021     0.0129     0.0044     0.0032 </r>
        <r>     6.9385     0.0265     0.0330     0.0825     0.0048     0.0063     0.0043     0.0268     0.0089     0.0065 </r>
        <r>     7.0434     0.0319     0.0445     0.1013     0.0167     0.0084     0.0058     0.0375     0.0114     0.0089 </r>
        <r>     7.1482     0.0242     0.0521     0.0824     0.0442     0.0096     0.0070     0.0424     0.0109     0.0124 </r>
        <r>     7.2531     0.0133     0.0732     0.0535     0.0776     0.0127     0.0110     0.0443     0.0105     0.0239 </r>
        <r>     7.3579     0.0069     0.1004     0.0329     0.0888     0.0165     0.0170     0.0372     0.0106     0.0402 </r>
        <r>     7.4628     0.0054     0.0998     0.0216     0.0724     0.0157     0.0194     0.0230     0.0087     0.0435 </r>
        <r>     7.5677     0.0105     0.0700     0.0280     0.0609     0.0100     0.0190     0.0171     0.0053     0.0290 </r>
        <r>     7.6725     0.0213     0.0453     0.0514     0.0753     0.0048     0.0218     0.0239     0.0031     0.0127 </r>
        <r>     7.7774     0.0275     0.0348     0.0655     0.0869     0.0025     0.0238     0.0294     0.0022     0.0049 </r>
        <r>     7.8822     0.0211     0.0236     0.0502     0.0654     0.0015     0.0177     0.0225     0.0015     0.0022 </r>
        <r>     7.9871     0.0097     0.0109     0.0233     0.0297     0.0007     0.0080     0.0102     0.0007     0.0009 </r>
        <r>     8.0920     0.0034     0.0066     0.0103     0.0088     0.0009     0.0027     0.0029     0.0005     0.0007 </r>
        <r>     8.1968     0.0043     0.0185     0.0207     0.0055     0.0036     0.0032     0.0013     0.0014     0.0024 </r>
        <r>     8.3017     0.0110     0.0504     0.0553     0.0121     0.0100     0.0081     0.0024     0.0037     0.0066 </r>
        <r>     8.4065     0.0183     0.0833     0.0915     0.0204     0.0167     0.0134     0.0040     0.0063     0.0109 </r>
        <r>     8.5114     0.0194     0.0828     0.0927     0.0246     0.0178     0.0134     0.0049     0.0071     0.0111 </r>
        <r>     8.6163     0.0177     0.0544     0.0678     0.0334     0.0165     0.0091     0.0067     0.0081     0.0083 </r>
        <r>     8.7211     0.0215     0.0346     0.0576     0.0575     0.0206     0.0064     0.0117     0.0123     0.0074 </r>
        <r>     8.8260     0.0263     0.0297     0.0606     0.0770     0.0254     0.0060     0.0157     0.0161     0.0080 </r>
        <r>     8.9308     0.0216     0.0226     0.0483     0.0640     0.0209     0.0047     0.0131     0.0133     0.0064 </r>
        <r>     9.0357     0.0107     0.0111     0.0238     0.0317     0.0103     0.0023     0.0065     0.0066     0.0032 </r>
        <r>     9.1406     0.0031     0.0036     0.0070     0.0094     0.0031     0.0007     0.0019     0.0021     0.0010 </r>
        <r>     9.2454     0.0006     0.0033     0.0018     0.0029     0.0013     0.0006     0.0008     0.0020     0.0012 </r>
        <r>     9.3503     0.0009     0.0141     0.0033     0.0066     0.0038     0.0027     0.0022     0.0084     0.0049 </r>
        <r>     9.4551     0.0052     0.0443     0.0102     0.0192     0.0112     0.0079     0.0067     0.0248     0.0144 </r>
        <r>     9.5600     0.0211     0.0906     0.0213     0.0348     0.0198     0.0144     0.0129     0.0440     0.0251 </r>
        <r>     9.6649     0.0535     0.1296     0.0314     0.0400     0.0217     0.0166     0.0167     0.0479     0.0261 </r>
        <r>     9.7697     0.0819     0.1360     0.0342     0.0312     0.0154     0.0131     0.0156     0.0337     0.0165 </r>
        <r>     9.8746     0.0757     0.1020     0.0277     0.0188     0.0076     0.0078     0.0109     0.0172     0.0066 </r>
        <r>     9.9794     0.0456     0.0526     0.0219     0.0139     0.0028     0.0047     0.0065     0.0103     0.0018 </r>
        <r>    10.0843     0.0283     0.0225     0.0305     0.0222     0.0009     0.0056     0.0062     0.0150     0.0004 </r>
        <r>    10.1892     0.0294     0.0152     0.0474     0.0359     0.0004     0.0084     0.0086     0.0240     0.0001 </r>
        <r>    10.2940     0.0282     0.0132     0.0486     0.0370     0.0003     0.0086     0.0087     0.0247     0.0001 </r>
        <r>    10.3989     0.0172     0.0079     0.0298     0.0227     0.0002     0.0053     0.0053     0.0152     0.0001 </r>
        <r>    10.5037     0.0063     0.0029     0.0108     0.0083     0.0001     0.0019     0.0019     0.0055     0.0000 </r>
        <r>    10.6086     0.0013     0.0011     0.0023     0.0020     0.0001     0.0006     0.0004     0.0012     0.0003 </r>
        <r>    10.7135     0.0002     0.0041     0.0003     0.0016     0.0007     0.0013     0.0001     0.0006     0.0024 </r>
        <r>    10.8183     0.0001     0.0193     0.0002     0.0068     0.0035     0.0061     0.0001     0.0021     0.0111 </r>
        <r>    10.9232     0.0006     0.0556     0.0013     0.0197     0.0107     0.0171     0.0006     0.0058     0.0313 </r>
        <r>    11.0280     0.0029     0.1014     0.0067     0.0371     0.0223     0.0293     0.0030     0.0096     0.0538 </r>
[...]
        <r>  0.1639  0.0211  0.0065  0.0077  0.0005  0.0007  0.0001  0.0003  0.0004 </r>
       </set>
       <set comment="band 2">
        <r>  0.1451  0.0343  0.0079  0.0196  0.0008  0.0004  0.0010  0.0014  0.0016 </r>
        <r>  0.1451  0.0264  0.0079  0.0275  0.0006  0.0013  0.0010  0.0004  0.0018 </r>
        <r>  0.1451  0.0343  0.0079  0.0196  0.0008  0.0004  0.0010  0.0014  0.0016 </r>
        <r>  0.1451  0.0264  0.0079  0.0275  0.0006  0.0013  0.0010  0.0004  0.0018 </r>
       </set>
       <set comment="band 3">
        <r>  0.1626  0.0001  0.0128  0.0290  0.0006  0.0043  0.0005  0.0004  0.0015 </r>
        <r>  0.1626  0.0207  0.0128  0.0085  0.0007  0.0012  0.0005  0.0035  0.0014 </r>
        <r>  0.1626  0.0001  0.0128  0.0290  0.0006  0.0043  0.0005  0.0004  0.0015 </r>
        <r>  0.1626  0.0207  0.0128  0.0085  0.0007  0.0012  0.0005  0.0035  0.0014 </r>
       </set>
       <set comment="band 4">
        <r>  0.0563  0.0346  0.0537  0.0334  0.0001  0.0007  0.0009  0.0043  0.0009 </r>
        <r>  0.0563  0.0453  0.0537  0.0228  0.0009  0.0045  0.0009  0.0005  0.0001 </r>
        <r>  0.0563  0.0346  0.0537  0.0334  0.0001  0.0007  0.0009  0.0043  0.0009 </r>
        <r>  0.0563  0.0453  0.0537  0.0228  0.0009  0.0045  0.0009  0.0005  0.0001 </r>
       </set>
       <set comment="band 5">
        <r>  0.0390  0.0518  0.0790  0.0121  0.0006  0.0044  0.0004  0.0021  0.0025 </r>
        <r>  0.0390  0.0043  0.0790  0.0596  0.0010  0.0023  0.0004  0.0042  0.0021 </r>
        <r>  0.0390  0.0518  0.0790  0.0121  0.0006  0.0044  0.0004  0.0021  0.0025 </r>
        <r>  0.0390  0.0043  0.0790  0.0596  0.0010  0.0023  0.0004  0.0042  0.0021 </r>
       </set>
       <set comment="band 6">
        <r>  0.0168  0.0407  0.0304  0.0943  0.0025  0.0015  0.0018  0.0040  0.0001 </r>
        <r>  0.0168  0.0516  0.0304  0.0835  0.0003  0.0025  0.0018  0.0030  0.0022 </r>
        <r>  0.0168  0.0407  0.0304  0.0943  0.0025  0.0015  0.0018  0.0040  0.0001 </r>
        <r>  0.0168  0.0516  0.0304  0.0835  0.0003  0.0025  0.0018  0.0030  0.0022 </r>
       </set>
       <set comment="band 7">
        <r>  0.0950  0.0092  0.0450  0.0308  0.0085  0.0060  0.0046  0.0010  0.0036 </r>
        <r>  0.0950  0.0391  0.0450  0.0009  0.0075  0.0042  0.0046  0.0028  0.0047 </r>
        <r>  0.0950  0.0092  0.0450  0.0308  0.0085  0.0060  0.0046  0.0010  0.0036 </r>
        <r>  0.0950  0.0391  0.0450  0.0009  0.0075  0.0042  0.0046  0.0028  0.0047 </r>
       </set>
       <set comment="band 8">
        <r>  0.0106  0.0153  0.0124  0.0828  0.0082  0.0046  0.0023  0.0127  0.0135 </r>
        <r>  0.0106  0.0398  0.0124  0.0583  0.0048  0.0062  0.0023  0.0111  0.0170 </r>
        <r>  0.0106  0.0153  0.0124  0.0828  0.0082  0.0046  0.0023  0.0127  0.0135 </r>
        <r>  0.0106  0.0398  0.0124  0.0583  0.0048  0.0062  0.0023  0.0111  0.0170 </r>
       </set>
       <set comment="band 9">
        <r>  0.0226  0.0273  0.0700  0.0015  0.0052  0.0036  0.0217  0.0074  0.0054 </r>
        <r>  0.0226  0.0026  0.0700  0.0263  0.0090  0.0108  0.0217  0.0003  0.0016 </r>
        <r>  0.0226  0.0273  0.0700  0.0015  0.0052  0.0036  0.0217  0.0074  0.0054 </r>
        <r>  0.0226  0.0026  0.0700  0.0263  0.0090  0.0108  0.0217  0.0003  0.0016 </r>
       </set>
       <set comment="band 10">
        <r>  0.0199  0.0216  0.0474  0.0616  0.0013  0.0166  0.0212  0.0014  0.0018 </r>
        <r>  0.0199  0.0451  0.0474  0.0381  0.0023  0.0082  0.0212  0.0097  0.0007 </r>
        <r>  0.0199  0.0216  0.0474  0.0616  0.0013  0.0166  0.0212  0.0014  0.0018 </r>
        <r>  0.0199  0.0451  0.0474  0.0381  0.0023  0.0082  0.0212  0.0097  0.0007 </r>
       </set>
       <set comment="band 11">
        <r>  0.0138  0.0635  0.0695  0.0150  0.0126  0.0102  0.0029  0.0047  0.0083 </r>
        <r>  0.0138  0.0523  0.0695  0.0262  0.0175  0.0008  0.0029  0.0141  0.0034 </r>
        <r>  0.0138  0.0635  0.0695  0.0150  0.0126  0.0102  0.0029  0.0047  0.0083 </r>
        <r>  0.0138  0.0523  0.0695  0.0262  0.0175  0.0008  0.0029  0.0141  0.0034 </r>
       </set>
       <set comment="band 12">
        <r>  0.0009  0.0527  0.0119  0.0251  0.0148  0.0103  0.0084  0.0329  0.0194 </r>
        <r>  0.0009  0.0020  0.0119  0.0758  0.0114  0.0125  0.0084  0.0307  0.0228 </r>
        <r>  0.0009  0.0527  0.0119  0.0251  0.0148  0.0103  0.0084  0.0329  0.0194 </r>
        <r>  0.0009  0.0020  0.0119  0.0758  0.0114  0.0125  0.0084  0.0307  0.0228 </r>
       </set>
       <set comment="band 13">
        <r>  0.0606  0.0706  0.0184  0.0085  0.0028  0.0037  0.0067  0.0058  0.0010 </r>
        <r>  0.0606  0.0350  0.0184  0.0440  0.0030  0.0086  0.0067  0.0009  0.0008 </r>
        <r>  0.0606  0.0706  0.0184  0.0085  0.0028  0.0037  0.0067  0.0058  0.0010 </r>
        <r>  0.0606  0.0350  0.0184  0.0440  0.0030  0.0086  0.0067  0.0009  0.0008 </r>
       </set>
       <set comment="band 14">
        <r>  0.0121  0.0637  0.0281  0.0297  0.0294  0.0077  0.0125  0.0001  0.0148 </r>
        <r>  0.0121  0.0631  0.0281  0.0302  0.0275  0.0026  0.0125  0.0052  0.0166 </r>
        <r>  0.0121  0.0637  0.0281  0.0297  0.0294  0.0077  0.0125  0.0001  0.0148 </r>
        <r>  0.0121  0.0631  0.0281  0.0302  0.0275  0.0026  0.0125  0.0052  0.0166 </r>
       </set>
       <set comment="band 15">
        <r>  0.0051  0.0017  0.0130  0.0301  0.0176  0.0058  0.0146  0.0092  0.0208 </r>
        <r>  0.0051  0.0246  0.0130  0.0072  0.0246  0.0082  0.0146  0.0069  0.0138 </r>
        <r>  0.0051  0.0017  0.0130  0.0301  0.0176  0.0058  0.0146  0.0092  0.0208 </r>
        <r>  0.0051  0.0246  0.0130  0.0072  0.0246  0.0082  0.0146  0.0069  0.0138 </r>
       </set>
       <set comment="band 16">
        <r>  0.0061  0.0496  0.0125  0.0624  0.0026  0.0094  0.0066  0.0103  0.0049 </r>
        <r>  0.0061  0.1051  0.0125  0.0069  0.0074  0.0104  0.0066  0.0093  0.0001 </r>
        <r>  0.0061  0.0496  0.0125  0.0624  0.0026  0.0094  0.0066  0.0103  0.0049 </r>
        <r>  0.0061  0.1051  0.0125  0.0069  0.0074  0.0104  0.0066  0.0093  0.0001 </r>
       </set>
       <set comment="band 17">
        <r>  0.0113  0.0628  0.0171  0.0196  0.0226  0.0065  0.0074  0.0287  0.0148 </r>
        <r>  0.0113  0.0554  0.0171  0.0270  0.0334  0.0340  0.0074  0.0013  0.0040 </r>
        <r>  0.0113  0.0628  0.0171  0.0196  0.0226  0.0065  0.0074  0.0287  0.0148 </r>
        <r>  0.0113  0.0554  0.0171  0.0270  0.0334  0.0340  0.0074  0.0013  0.0040 </r>
       </set>
       <set comment="band 18">
        <r>  0.0092  0.0234  0.0026  0.0310  0.0505  0.0212  0.0016  0.0104  0.0108 </r>
        <r>  0.0092  0.0249  0.0026  0.0294  0.0097  0.0147  0.0016  0.0169  0.0517 </r>
        <r>  0.0092  0.0234  0.0026  0.0310  0.0505  0.0212  0.0016  0.0104  0.0108 </r>
        <r>  0.0092  0.0249  0.0026  0.0294  0.0097  0.0147  0.0016  0.0169  0.0517 </r>
       </set>
       <set comment="band 19">
        <r>  0.0019  0.0077  0.1017  0.0339  0.0163  0.0230  0.0033  0.0116  0.0055 </r>
        <r>  0.0019  0.0141  0.1017  0.0275  0.0132  0.0216  0.0033  0.0130  0.0086 </r>
        <r>  0.0019  0.0077  0.1017  0.0339  0.0163  0.0230  0.0033  0.0116  0.0055 </r>
        <r>  0.0019  0.0141  0.1017  0.0275  0.0132  0.0216  0.0033  0.0130  0.0086 </r>
       </set>
       <set comment="band 20">
        <r>  0.0076  0.0099  0.0046  0.0197  0.0078  0.0214  0.0140  0.0405  0.0004 </r>
        <r>  0.0076  0.0064  0.0046  0.0231  0.0042  0.0190  0.0140  0.0429  0.0041 </r>
        <r>  0.0076  0.0099  0.0046  0.0197  0.0078  0.0214  0.0140  0.0405  0.0004 </r>
        <r>  0.0076  0.0064  0.0046  0.0231  0.0042  0.0190  0.0140  0.0429  0.0041 </r>
       </set>
       <set comment="band 21">
        <r>  0.0116  0.0414  0.0003  0.0186  0.0110  0.0154  0.0084  0.0171  0.0092 </r>
        <r>  0.0116  0.0112  0.0003  0.0489  0.0168  0.0286  0.0084  0.0039  0.0034 </r>
        <r>  0.0116  0.0414  0.0003  0.0186  0.0110  0.0154  0.0084  0.0171  0.0092 </r>
        <r>  0.0116  0.0112  0.0003  0.0489  0.0168  0.0286  0.0084  0.0039  0.0034 </r>
       </set>
       <set comment="band 22">
        <r>  0.0046  0.0124  0.0037  0.0180  0.0137  0.0061  0.0632  0.0006  0.0153 </r>
        <r>  0.0046  0.0148  0.0037  0.0156  0.0048  0.0013  0.0632  0.0055  0.0241 </r>
        <r>  0.0046  0.0124  0.0037  0.0180  0.0137  0.0061  0.0632  0.0006  0.0153 </r>
        <r>  0.0046  0.0148  0.0037  0.0156  0.0048  0.0013  0.0632  0.0055  0.0241 </r>
       </set>
       <set comment="band 23">
        <r>  0.0036  0.0019  0.0201  0.0195  0.0014  0.0195  0.0470  0.0083  0.0228 </r>
        <r>  0.0036  0.0142  0.0201  0.0072  0.0127  0.0001  0.0470  0.0276  0.0116 </r>
        <r>  0.0036  0.0019  0.0201  0.0195  0.0014  0.0195  0.0470  0.0083  0.0228 </r>
        <r>  0.0036  0.0142  0.0201  0.0072  0.0127  0.0001  0.0470  0.0276  0.0116 </r>
       </set>
       <set comment="band 24">
        <r>  0.0119  0.0010  0.0444  0.0011  0.0002  0.0087  0.0445  0.0161  0.0156 </r>
        <r>  0.0119  0.0019  0.0444  0.0002  0.0105  0.0104  0.0445  0.0144  0.0053 </r>
        <r>  0.0119  0.0010  0.0444  0.0011  0.0002  0.0087  0.0445  0.0161  0.0156 </r>
        <r>  0.0119  0.0019  0.0444  0.0002  0.0104  0.0104  0.0445  0.0144  0.0053 </r>
       </set>
      </set>
      <set comment="kpoint 2">
       <set comment="band 1">
        <r>  0.1803  0.0026  0.0086  0.0075  0.0004  0.0001  0.0001  0.0002  0.0001 </r>
        <r>  0.1855  0.0024  0.0074  0.0069  0.0002  0.0002  0.0000  0.0005  0.0001 </r>
        <r>  0.1803  0.0026  0.0086  0.0075  0.0004  0.0001  0.0001  0.0002  0.0001 </r>
        <r>  0.1855  0.0024  0.0074  0.0069  0.0002  0.0002  0.0000  0.0005  0.0001 </r>
       </set>
       <set comment="band 2">
        <r>  0.1681  0.0020  0.0483  0.0057  0.0001  0.0009  0.0022  0.0025  0.0000 </r>
        <r>  0.1319  0.0009  0.0489  0.0025  0.0021  0.0006  0.0017  0.0018  0.0006 </r>
        <r>  0.1681  0.0020  0.0483  0.0057  0.0001  0.0009  0.0022  0.0025  0.0000 </r>
        <r>  0.1319  0.0009  0.0489  0.0025  0.0021  0.0006  0.0017  0.0018  0.0006 </r>
       </set>
       <set comment="band 3">
        <r>  0.0669  0.0192  0.0046  0.0553  0.0028  0.0001  0.0002  0.0003  0.0009 </r>
        <r>  0.1069  0.0258  0.0194  0.0741  0.0035  0.0003  0.0027  0.0010  0.0011 </r>
        <r>  0.0669  0.0192  0.0046  0.0553  0.0028  0.0001  0.0002  0.0003  0.0009 </r>
        <r>  0.1069  0.0258  0.0194  0.0741  0.0035  0.0003  0.0027  0.0010  0.0011 </r>
       </set>
       <set comment="band 4">
        <r>  0.1412  0.0096  0.0323  0.0276  0.0101  0.0006  0.0047  0.0018  0.0031 </r>
        <r>  0.1628  0.0059  0.0111  0.0169  0.0047  0.0005  0.0020  0.0015  0.0014 </r>
        <r>  0.1412  0.0096  0.0323  0.0276  0.0101  0.0006  0.0047  0.0018  0.0031 </r>
        <r>  0.1628  0.0059  0.0111  0.0169  0.0047  0.0005  0.0020  0.0015  0.0014 </r>
       </set>
       <set comment="band 5">
        <r>  0.0000  0.1332  0.0000  0.0463  0.0012  0.0035  0.0000  0.0012  0.0041 </r>
        <r>  0.0000  0.1343  0.0000  0.0467  0.0012  0.0032  0.0000  0.0011  0.0040 </r>
        <r>  0.0000  0.1332  0.0000  0.0463  0.0012  0.0035  0.0000  0.0012  0.0041 </r>
        <r>  0.0000  0.1343  0.0000  0.0467  0.0012  0.0032  0.0000  0.0011  0.0040 </r>
       </set>
       <set comment="band 6">
        <r>  0.0095  0.0287  0.0554  0.0826  0.0063  0.0018  0.0060  0.0051  0.0019 </r>
        <r>  0.0031  0.0226  0.0454  0.0649  0.0074  0.0027  0.0067  0.0076  0.0023 </r>
        <r>  0.0095  0.0287  0.0554  0.0826  0.0063  0.0018  0.0060  0.0051  0.0019 </r>
        <r>  0.0031  0.0226  0.0454  0.0649  0.0074  0.0027  0.0067  0.0076  0.0023 </r>
       </set>
       <set comment="band 7">
        <r>  0.0144  0.0021  0.1236  0.0060  0.0076  0.0020  0.0080  0.0058  0.0023 </r>
        <r>  0.0111  0.0065  0.1874  0.0186  0.0053  0.0001  0.0099  0.0004  0.0016 </r>
        <r>  0.0144  0.0021  0.1236  0.0060  0.0076  0.0020  0.0080  0.0058  0.0023 </r>
        <r>  0.0111  0.0065  0.1874  0.0186  0.0053  0.0001  0.0099  0.0004  0.0016 </r>
       </set>
       <set comment="band 8">
        <r>  0.0000  0.1280  0.0000  0.0445  0.0012  0.0191  0.0000  0.0066  0.0039 </r>
        <r>  0.0000  0.1185  0.0000  0.0412  0.0011  0.0206  0.0000  0.0072  0.0037 </r>
        <r>  0.0000  0.1280  0.0000  0.0445  0.0012  0.0191  0.0000  0.0066  0.0039 </r>
        <r>  0.0000  0.1185  0.0000  0.0412  0.0011  0.0206  0.0000  0.0072  0.0037 </r>
       </set>
       <set comment="band 9">
        <r>  0.1698  0.0080  0.0577  0.0231  0.0020  0.0018  0.0016  0.0051  0.0006 </r>
        <r>  0.0921  0.0009  0.0049  0.0027  0.0059  0.0020  0.0036  0.0056  0.0018 </r>
        <r>  0.1698  0.0080  0.0577  0.0231  0.0020  0.0018  0.0016  0.0051  0.0006 </r>
        <r>  0.0921  0.0009  0.0049  0.0027  0.0059  0.0020  0.0036  0.0056  0.0018 </r>
       </set>
       <set comment="band 10">
        <r>  0.0034  0.0167  0.0199  0.0479  0.0033  0.0013  0.0273  0.0037  0.0010 </r>
        <r>  0.0411  0.0254  0.0027  0.0729  0.0037  0.0036  0.0199  0.0104  0.0011 </r>
        <r>  0.0034  0.0167  0.0199  0.0479  0.0033  0.0013  0.0273  0.0037  0.0010 </r>
        <r>  0.0411  0.0254  0.0027  0.0729  0.0037  0.0036  0.0199  0.0104  0.0011 </r>
       </set>
       <set comment="band 11">
        <r>  0.0000  0.0628  0.0000  0.0218  0.0097  0.0121  0.0000  0.0042  0.0316 </r>
        <r>  0.0000  0.0836  0.0000  0.0291  0.0103  0.0109  0.0000  0.0038  0.0337 </r>
        <r>  0.0000  0.0628  0.0000  0.0218  0.0097  0.0121  0.0000  0.0042  0.0316 </r>
        <r>  0.0000  0.0836  0.0000  0.0291  0.0103  0.0109  0.0000  0.0038  0.0337 </r>
       </set>
       <set comment="band 12">
        <r>  0.0187  0.0194  0.0417  0.0557  0.0181  0.0040  0.0114  0.0116  0.0055 </r>
        <r>  0.0674  0.0281  0.0093  0.0809  0.0184  0.0014  0.0103  0.0041  0.0056 </r>
        <r>  0.0187  0.0194  0.0417  0.0557  0.0181  0.0040  0.0114  0.0116  0.0055 </r>
        <r>  0.0674  0.0281  0.0093  0.0809  0.0184  0.0014  0.0103  0.0041  0.0056 </r>
       </set>
       <set comment="band 13">
        <r>  0.0213  0.0098  0.0369  0.0281  0.0002  0.0065  0.0066  0.0188  0.0001 </r>
        <r>  0.0075  0.0039  0.1449  0.0113  0.0093  0.0041  0.0006  0.0119  0.0028 </r>
        <r>  0.0213  0.0098  0.0369  0.0281  0.0002  0.0065  0.0066  0.0188  0.0001 </r>
        <r>  0.0075  0.0039  0.1449  0.0113  0.0093  0.0041  0.0006  0.0119  0.0028 </r>
       </set>
       <set comment="band 14">
        <r>  0.0000  0.0660  0.0000  0.0229  0.0117  0.0210  0.0000  0.0073  0.0384 </r>
        <r>  0.0000  0.0570  0.0000  0.0198  0.0103  0.0197  0.0000  0.0068  0.0338 </r>
        <r>  0.0000  0.0660  0.0000  0.0229  0.0117  0.0210  0.0000  0.0073  0.0384 </r>
        <r>  0.0000  0.0570  0.0000  0.0198  0.0103  0.0197  0.0000  0.0068  0.0338 </r>
       </set>
       <set comment="band 15">
        <r>  0.0012  0.0210  0.0488  0.0604  0.0127  0.0004  0.0023  0.0010  0.0039 </r>
        <r>  0.0375  0.0008  0.0281  0.0022  0.0147  0.0116  0.0195  0.0335  0.0045 </r>
        <r>  0.0012  0.0210  0.0488  0.0604  0.0127  0.0004  0.0023  0.0010  0.0039 </r>
        <r>  0.0375  0.0008  0.0281  0.0022  0.0147  0.0116  0.0195  0.0335  0.0045 </r>
       </set>
       <set comment="band 16">
        <r>  0.0645  0.0027  0.0794  0.0077  0.0042  0.0030  0.0181  0.0087  0.0013 </r>
        <r>  0.0074  0.0127  0.0647  0.0365  0.0078  0.0036  0.0060  0.0104  0.0024 </r>
        <r>  0.0645  0.0027  0.0794  0.0077  0.0042  0.0030  0.0181  0.0087  0.0013 </r>
        <r>  0.0074  0.0127  0.0647  0.0365  0.0078  0.0036  0.0060  0.0104  0.0024 </r>
       </set>
       <set comment="band 17">
        <r>  0.0000  0.0405  0.0000  0.0141  0.0059  0.0690  0.0000  0.0240  0.0192 </r>
        <r>  0.0000  0.0267  0.0000  0.0093  0.0054  0.0668  0.0000  0.0232  0.0176 </r>
        <r>  0.0000  0.0405  0.0000  0.0141  0.0059  0.0690  0.0000  0.0240  0.0192 </r>
        <r>  0.0000  0.0267  0.0000  0.0093  0.0054  0.0668  0.0000  0.0232  0.0176 </r>
       </set>
       <set comment="band 18">
        <r>  0.0083  0.0058  0.0328  0.0168  0.0287  0.0152  0.0040  0.0437  0.0088 </r>
        <r>  0.0187  0.0126  0.0111  0.0361  0.0061  0.0082  0.0144  0.0237  0.0019 </r>
        <r>  0.0083  0.0058  0.0328  0.0168  0.0287  0.0152  0.0040  0.0437  0.0088 </r>
        <r>  0.0187  0.0126  0.0111  0.0361  0.0061  0.0082  0.0144  0.0237  0.0019 </r>
       </set>
       <set comment="band 19">
        <r>  0.0132  0.0088  0.0372  0.0253  0.0044  0.0091  0.0493  0.0261  0.0014 </r>
        <r>  0.0040  0.0118  0.0207  0.0338  0.0008  0.0024  0.1060  0.0070  0.0003 </r>
        <r>  0.0132  0.0088  0.0372  0.0253  0.0044  0.0091  0.0493  0.0261  0.0014 </r>
        <r>  0.0040  0.0118  0.0207  0.0338  0.0008  0.0024  0.1060  0.0070  0.0003 </r>
       </set>
       <set comment="band 20">
        <r>  0.0155  0.0014  0.0418  0.0041  0.0005  0.0046  0.0547  0.0132  0.0002 </r>
        <r>  0.0042  0.0180  0.0514  0.0517  0.0143  0.0095  0.0135  0.0273  0.0044 </r>
        <r>  0.0155  0.0014  0.0418  0.0041  0.0005  0.0046  0.0547  0.0132  0.0002 </r>
        <r>  0.0042  0.0180  0.0514  0.0517  0.0143  0.0095  0.0135  0.0273  0.0044 </r>
       </set>
       <set comment="band 21">
        <r>  0.0000  0.0323  0.0000  0.0112  0.0227  0.0173  0.0000  0.0060  0.0743 </r>
        <r>  0.0000  0.0009  0.0000  0.0003  0.0305  0.0076  0.0000  0.0026  0.0997 </r>
        <r>  0.0000  0.0323  0.0000  0.0112  0.0227  0.0173  0.0000  0.0060  0.0743 </r>
        <r>  0.0000  0.0009  0.0000  0.0003  0.0305  0.0076  0.0000  0.0026  0.0997 </r>
       </set>
       <set comment="band 22">
        <r>  0.0000  0.0153  0.0000  0.0053  0.0085  0.0289  0.0000  0.0100  0.0278 </r>
        <r>  0.0000  0.0649  0.0000  0.0226  0.0004  0.0462  0.0000  0.0161  0.0013 </r>
        <r>  0.0000  0.0153  0.0000  0.0053  0.0085  0.0289  0.0000  0.0100  0.0278 </r>
        <r>  0.0000  0.0649  0.0000  0.0226  0.0004  0.0462  0.0000  0.0161  0.0013 </r>
       </set>
       <set comment="band 23">
        <r>  0.0058  0.0140  0.0283  0.0404  0.0238  0.0056  0.0372  0.0161  0.0073 </r>
        <r>  0.0175  0.0008  0.0430  0.0023  0.0082  0.0007  0.0058  0.0021  0.0025 </r>
        <r>  0.0058  0.0140  0.0283  0.0404  0.0238  0.0056  0.0372  0.0161  0.0073 </r>
        <r>  0.0175  0.0008  0.0430  0.0023  0.0082  0.0007  0.0058  0.0021  0.0025 </r>
       </set>
       <set comment="band 24">
        <r>  0.0075  0.0260  0.0284  0.0748  0.0038  0.0054  0.0367  0.0154  0.0012 </r>
        <r>  0.0069  0.0076  0.0291  0.0220  0.0087  0.0034  0.0372  0.0098  0.0027 </r>
        <r>  0.0075  0.0260  0.0284  0.0748  0.0038  0.0054  0.0367  0.0154  0.0012 </r>
        <r>  0.0069  0.0076  0.0291  0.0220  0.0087  0.0034  0.0372  0.0098  0.0027 </r>
       </set>
      </set>
     </set>
    </set>
   </array>
  </projected>
 </calculation>
 <structure name="finalpos" >
  <crystal>
   <varray name="basis" >
    <v>       4.35155188       0.01064991       0.00000000 </v>
    <v>      -2.09701412       3.81295742       0.00000000 </v>
    <v>       0.00000000       0.00000000       4.40600814 </v>
   </varray>
   <i name="volume">     73.20412919 </i>
   <varray name="rec_basis" >
    <v>       0.22949418       0.12621503       0.00000000 </v>
    <v>      -0.00064100       0.26191109       0.00000000 </v>
    <v>       0.00000000       0.00000000       0.22696281 </v>
   </varray>
  </crystal>
  <varray name="positions" >
   <v>       0.15604272       0.84395728       0.91665406 </v>
   <v>       0.34395728       0.65604272       0.41665406 </v>
   <v>       0.84395728       0.15604272       0.08334594 </v>
   <v>       0.65604272       0.34395728       0.58334594 </v>
  </varray>
 </structure>
</modeling>
