unknown system                          
   1.00000000000000     
     4.351552    0.010650    0.000000
    -2.097014    3.812957    0.000000
     0.000000    0.000000    4.406008
   Ga
     4
Direct
  0.156043  0.843957  0.916654
  0.343957  0.656043  0.416654
  0.843957  0.156043  0.083346
  0.656043  0.343957  0.583346
 
   60   60   60
 0.26167554411E+02 0.26138208460E+02 0.25948722886E+02 0.25656802659E+02 0.25211985711E+02
 0.24568484016E+02 0.23696212665E+02 0.22592768403E+02 0.21293457865E+02 0.19875233765E+02
 0.18449837572E+02 0.17144709608E+02 0.16076383676E+02 0.15325915107E+02 0.14924591488E+02
 0.14852579335E+02 0.15047920628E+02 0.15421224335E+02 0.15872513624E+02 0.16308067509E+02
 0.16654883773E+02 0.16869967325E+02 0.16942057837E+02 0.16886276508E+02 0.16734405058E+02
 0.16524650049E+02 0.16293818141E+02 0.16073272082E+02 0.15888596481E+02 0.15771801652E+02
 0.15715413727E+02 0.15771801652E+02 0.15888596481E+02 0.16073272082E+02 0.16293818141E+02
 0.16524650049E+02 0.16734405058E+02 0.16886276508E+02 0.16942057837E+02 0.16869967325E+02
 0.16654883773E+02 0.16308067509E+02 0.15872513624E+02 0.15421224335E+02 0.15047920628E+02
 0.14852579335E+02 0.14924591488E+02 0.15325915107E+02 0.16076383676E+02 0.17144709608E+02
 0.18449837572E+02 0.19875233765E+02 0.21293457865E+02 0.22592768403E+02 0.23696212665E+02
 0.24568484016E+02 0.25211985711E+02 0.25656802659E+02 0.25948722886E+02 0.26138208460E+02
 0.26138208479E+02 0.26005033367E+02 0.25814129584E+02 0.25482512268E+02 0.25071508467E+02
 0.24543542900E+02 0.23869737586E+02 0.23038209929E+02 0.22061049037E+02 0.20977718325E+02
 0.19852995306E+02 0.18767897823E+02 0.17804758474E+02 0.17030478770E+02 0.16483367973E+02
 0.16167327278E+02 0.16054209803E+02 0.16092195267E+02 0.16217364225E+02 0.16365886097E+02
 0.16484809295E+02 0.16539588363E+02 0.16516890083E+02 0.16422501506E+02 0.16275678243E+02
 0.16102124469E+02 0.15928013330E+02 0.15776693104E+02 0.15668194224E+02 0.15630256932E+02
 0.15655409042E+02 0.15792919965E+02 0.15992182287E+02 0.16256686786E+02 0.16551899150E+02
 0.16846663030E+02 0.17100856019E+02 0.17265112696E+02 0.17285078043E+02 0.17110982418E+02
 0.16711861102E+02 0.16090972313E+02 0.15296720975E+02 0.14423175545E+02 0.13598634572E+02
 0.12965256136E+02 0.12657124173E+02 0.12779693369E+02 0.13391342947E+02 0.14487708801E+02
 0.15993121459E+02 0.17765689575E+02 0.19624454888E+02 0.21389916732E+02 0.22922584222E+02
 0.24143297727E+02 0.25032901974E+02 0.25618327410E+02 0.25954222524E+02 0.26106196373E+02
 0.25948722935E+02 0.25814129635E+02 0.25524344364E+02 0.25180161491E+02 0.24726005139E+02
 0.24217695836E+02 0.23628612748E+02 0.22942738980E+02 0.22159613867E+02 0.21297321810E+02
 0.20391363221E+02 0.19490185756E+02 0.18646862697E+02 0.17909123920E+02 0.17310262393E+02
 0.16863473885E+02 0.16560874708E+02 0.16377006044E+02 0.16275408609E+02 0.16216432555E+02
 0.16164817159E+02 0.16095548406E+02 0.15997043885E+02 0.15870644721E+02 0.15727906412E+02
 0.15585704392E+02 0.15462215332E+02 0.15374273351E+02 0.15336948245E+02 0.15372594419E+02
 0.15477248717E+02 0.15693044956E+02 0.15975879687E+02 0.16322014207E+02 0.16696327181E+02
 0.17062821112E+02 0.17372968205E+02 0.17564131289E+02 0.17563217424E+02 0.17297460535E+02
 0.16712718712E+02 0.15796362351E+02 0.14597096762E+02 0.13230742026E+02 0.11865422165E+02
 0.10690598955E+02 0.98851265002E+01 0.95938036819E+01 0.99143333884E+01 0.10885639738E+02
 0.12470978893E+02 0.14540874480E+02 0.16878995912E+02 0.19227547516E+02 0.21353440843E+02
 0.23099251885E+02 0.24399004548E+02 0.25263895128E+02 0.25754556312E+02 0.25954222568E+02
 0.25656802781E+02 0.25482512355E+02 0.25180161561E+02 0.24745695975E+02 0.24263709651E+02
 0.23708868736E+02 0.23124589693E+02 0.22492623920E+02 0.21805537086E+02 0.21068765484E+02
 0.20300478768E+02 0.19528411512E+02 0.18784956358E+02 0.18101316606E+02 0.17501840485E+02
 0.17000163429E+02 0.16597601397E+02 0.16284189991E+02 0.16041810092E+02 0.15848379009E+02
 0.15682787484E+02 0.15528983280E+02 0.15378718018E+02 0.15232221527E+02 0.15096814961E+02
 0.14983870672E+02 0.14906143914E+02 0.14875579676E+02 0.14903462771E+02 0.15006559051E+02
 0.15186350622E+02 0.15475370555E+02 0.15839681572E+02 0.16266907746E+02 0.16722959779E+02
 0.17168426468E+02 0.17547915241E+02 0.17786620732E+02 0.17792257192E+02 0.17465817138E+02
 0.16723075750E+02 0.15526229123E+02 0.13916787335E+02 0.12032632751E+02 0.10091423459E+02
 0.83407844230E+01 0.70015414350E+01 0.62352620791E+01 0.61471627906E+01 0.68022824820E+01
 0.82288616549E+01 0.10379179539E+02 0.13075241762E+02 0.16011627535E+02 0.18840977608E+02
 0.21280622081E+02 0.23172170837E+02 0.24481782105E+02 0.25263895257E+02 0.25618327560E+02
 0.25211985980E+02 0.25071508641E+02 0.24726005244E+02 0.24263709725E+02 0.23701420391E+02
 0.23103289627E+02 0.22470616513E+02 0.21830616131E+02 0.21171124595E+02 0.20489781937E+02
 0.19794005550E+02 0.19098911767E+02 0.18423705557E+02 0.17787729865E+02 0.17207109909E+02
 0.16692271670E+02 0.16247122581E+02 0.15869127099E+02 0.15550662207E+02 0.15281060646E+02
 0.15049302562E+02 0.14846515695E+02 0.14668103860E+02 0.14514743389E+02 0.14391765519E+02
 0.14307517616E+02 0.14271368118E+02 0.14292233952E+02 0.14397129465E+02 0.14542793548E+02
 0.14791294622E+02 0.15146583637E+02 0.15586711484E+02 0.16091778212E+02 0.16629614463E+02
 0.17159285395E+02 0.17621170508E+02 0.17931252492E+02 0.17980419850E+02 0.17643279092E+02
 0.16801035079E+02 0.15381013362E+02 0.13406437761E+02 0.11034169969E+02 0.85459552889E+01
 0.62745286519E+01 0.44933656115E+01 0.33510023747E+01 0.28902639026E+01 0.31222087939E+01
 0.41031868519E+01 0.59307704440E+01 0.86068610809E+01 0.11900883901E+02 0.15384461667E+02
 0.18606122949E+02 0.21246855826E+02 0.23172171136E+02 0.24399004941E+02 0.25032902334E+02
 0.24568484542E+02 0.24543543241E+02 0.24217696029E+02 0.23708868835E+02 0.23103289689E+02
 0.22488460793E+02 0.21745902872E+02 0.21057972749E+02 0.20381481553E+02 0.19708332764E+02
 0.19038802992E+02 0.18379947484E+02 0.17742764631E+02 0.17139046811E+02 0.16578750476E+02
 0.16068774439E+02 0.15612400926E+02 0.15209712475E+02 0.14858175340E+02 0.14553556095E+02
 0.14291215777E+02 0.14067257456E+02 0.13880125396E+02 0.13731378222E+02 0.13625667832E+02
 0.13569799219E+02 0.13571341832E+02 0.13637583105E+02 0.13784909893E+02 0.13994153253E+02
 0.14303234814E+02 0.14716361311E+02 0.15241258350E+02 0.15799984216E+02 0.16416448816E+02
 0.17032126662E+02 0.17586485819E+02 0.17990721651E+02 0.18124040536E+02 0.17838619301E+02
 0.16980918470E+02 0.15435574479E+02 0.13192052491E+02 0.10412748928E+02 0.74529810338E+01
 0.47737213837E+01 0.27504320567E+01 0.15110782144E+01 0.95148321674E+00 0.89761933998E+00
 0.12943596133E+01 0.23399513934E+01 0.43636687298E+01 0.74525030422E+01 0.11253500584E+02
 0.15156462040E+02 0.18606123494E+02 0.21280622896E+02 0.23099252725E+02 0.24143298442E+02
 0.23696213577E+02 0.23869738191E+02 0.23628613103E+02 0.23124589872E+02 0.22470616589E+02
 0.21745902908E+02 0.21017222009E+02 0.20243508096E+02 0.19521942376E+02 0.18827158638E+02
 0.18153745429E+02 0.17502994414E+02 0.16880478702E+02 0.16293155194E+02 0.15747090091E+02
 0.15246330458E+02 0.14792735394E+02 0.14386577761E+02 0.14027154297E+02 0.13713245353E+02
 0.13443630996E+02 0.13217465993E+02 0.13035268259E+02 0.12899347450E+02 0.12814147582E+02
 0.12785754720E+02 0.12820953486E+02 0.12943999277E+02 0.13111845309E+02 0.13374967985E+02
 0.13735219839E+02 0.14196720782E+02 0.14767278538E+02 0.15397896997E+02 0.16086436106E+02
 0.16785592211E+02 0.17437114558E+02 0.17952798765E+02 0.18207108164E+02 0.18037831708E+02
 0.17262073945E+02 0.15719194197E+02 0.13348023084E+02 0.10287534667E+02 0.69482569013E+01
 0.39536839161E+01 0.18756064357E+01 0.88740763555E+00 0.67901270445E+00 0.75165281878E+00
 0.76791799435E+00 0.82699904028E+00 0.15551765952E+01 0.36172229331E+01 0.70571947429E+01
 0.11253501303E+02 0.15384462958E+02 0.18840979148E+02 0.21353442326E+02 0.22922585456E+02
 0.22592769831E+02 0.23038210901E+02 0.22942739576E+02 0.22492624241E+02 0.21830616272E+02
 0.21057972788E+02 0.20243508099E+02 0.19438232807E+02 0.18667649804E+02 0.17914440556E+02
 0.17218392889E+02 0.16557824825E+02 0.15934046513E+02 0.15350671138E+02 0.14811271377E+02
 0.14317905322E+02 0.13871196770E+02 0.13470733810E+02 0.13115976524E+02 0.12806662190E+02
 0.12542998112E+02 0.12325731240E+02 0.12156403711E+02 0.12037804724E+02 0.11974264040E+02
 0.11971487207E+02 0.12035995536E+02 0.12180459797E+02 0.12393970611E+02 0.12700329880E+02
 0.13101508467E+02 0.13601317504E+02 0.14207129634E+02 0.14894884677E+02 0.15645639238E+02
 0.16421098248E+02 0.17167927406E+02 0.17803350148E+02 0.18204935493E+02 0.18206455383E+02
 0.17606815646E+02 0.16205576048E+02 0.13879903357E+02 0.10706343929E+02 0.70911355101E+01
 0.37925798762E+01 0.16640018178E+01 0.11016255666E+01 0.16505722942E+01 0.23495254993E+01
 0.24517510299E+01 0.17951085136E+01 0.10267842308E+01 0.13744980103E+01 0.36172234290E+01
 0.74525043897E+01 0.11900885968E+02 0.16011629911E+02 0.19227549787E+02 0.21389918633E+02
 0.21293459902E+02 0.22061050464E+02 0.22159614778E+02 0.21805537609E+02 0.21171124850E+02
 0.20381481641E+02 0.19521942376E+02 0.18667649699E+02 0.17805781948E+02 0.17020992804E+02
 0.16301984980E+02 0.15603425547E+02 0.14968103965E+02 0.14379999735E+02 0.13840723564E+02
 0.13351048706E+02 0.12910604703E+02 0.12518211731E+02 0.12172806008E+02 0.11874009552E+02
 0.11622289205E+02 0.11418910515E+02 0.11265808962E+02 0.11165900711E+02 0.11123272992E+02
 0.11161906053E+02 0.11238923755E+02 0.11399013833E+02 0.11646889529E+02 0.11985461351E+02
 0.12416943208E+02 0.12944771967E+02 0.13575495729E+02 0.14319511789E+02 0.15103435595E+02
 0.15943843481E+02 0.16777406837E+02 0.17530433708E+02 0.18090542691E+02 0.18298301954E+02
 0.17948880964E+02 0.16816158314E+02 0.14717925098E+02 0.11638157731E+02 0.78954822176E+01
 0.42654537720E+01 0.18464439165E+01 0.14513487299E+01 0.27932769646E+01 0.44645580934E+01
 0.50962113498E+01 0.42449046047E+01 0.24199088703E+01 0.10267840988E+01 0.15551770519E+01
 0.43636703097E+01 0.86068636961E+01 0.13075244898E+02 0.16878998999E+02 0.19624457535E+02
 0.19875236430E+02 0.20977720253E+02 0.21297323089E+02 0.21068766259E+02 0.20489782352E+02
 0.19708332943E+02 0.18827158676E+02 0.17914440522E+02 0.17020992723E+02 0.16168577343E+02
 0.15392211841E+02 0.14682926265E+02 0.14035501741E+02 0.13447248426E+02 0.12882023260E+02
 0.12392086662E+02 0.11955400690E+02 0.11570079455E+02 0.11234346110E+02 0.10947233207E+02
 0.10708862951E+02 0.10520351475E+02 0.10383658405E+02 0.10301506642E+02 0.10288584466E+02
 0.10321357888E+02 0.10427707364E+02 0.10613959643E+02 0.10885252266E+02 0.11245191759E+02
 0.11696414547E+02 0.12242077047E+02 0.12887713123E+02 0.13642453333E+02 0.14472353531E+02
 0.15363066917E+02 0.16269129058E+02 0.17127892068E+02 0.17841765034E+02 0.18267215273E+02
 0.18210107357E+02 0.17438042367E+02 0.15726814547E+02 0.12963628980E+02 0.93164286816E+01
 0.54234006133E+01 0.24247071828E+01 0.15291599190E+01 0.30211468074E+01 0.55446462376E+01
 0.70177928125E+01 0.64365313542E+01 0.42449043240E+01 0.17951079819E+01 0.82699904910E+00
 0.23399527270E+01 0.59307731899E+01 0.10379183155E+02 0.14540878241E+02 0.17765692928E+02
 0.18449840786E+02 0.19852997716E+02 0.20391364881E+02 0.20300479820E+02 0.19794006156E+02
 0.19038803294E+02 0.18153745540E+02 0.17218392886E+02 0.16301984844E+02 0.15392211787E+02
 0.14567948549E+02 0.13818782961E+02 0.13138136542E+02 0.12522634887E+02 0.11970421301E+02
 0.11479515211E+02 0.11047016539E+02 0.10669347729E+02 0.10343159262E+02 0.10066278021E+02
 0.98382146237E+01 0.96601172947E+01 0.95344088238E+01 0.94644564415E+01 0.94544616818E+01
 0.95094718205E+01 0.96352392709E+01 0.98377333862E+01 0.10122397476E+02 0.10493549187E+02
 0.10954421292E+02 0.11508106839E+02 0.12159166227E+02 0.12915119394E+02 0.13786801484E+02
 0.14691835357E+02 0.15652271630E+02 0.16597442196E+02 0.17446681218E+02 0.18078029897E+02
 0.18319478634E+02 0.17951547894E+02 0.16734471042E+02 0.14482068520E+02 0.11202408831E+02
 0.72939146167E+01 0.36936085622E+01 0.17098142396E+01 0.22438459808E+01 0.46854899014E+01
 0.68869866558E+01 0.70177931741E+01 0.50962113091E+01 0.24517504667E+01 0.76791765431E+00
 0.12943604917E+01 0.41031893407E+01 0.82288653554E+01 0.12470983034E+02 0.15993125344E+02
 0.17144713194E+02 0.18767900624E+02 0.19490187763E+02 0.19528412841E+02 0.19098912579E+02
 0.18379947933E+02 0.17502994623E+02 0.16557824884E+02 0.15603425521E+02 0.14682926183E+02
 0.13818782934E+02 0.13037126416E+02 0.12329873251E+02 0.11692519305E+02 0.11122804235E+02
 0.10618985866E+02 0.10178659391E+02 0.97985591189E+01 0.94751887205E+01 0.92057482559E+01
 0.89888100487E+01 0.88244774956E+01 0.87141294271E+01 0.86600739962E+01 0.86653900413E+01
 0.87339856021E+01 0.88706547616E+01 0.90808589555E+01 0.93701485662E+01 0.97434552178E+01
 0.10204712536E+02 0.10757220883E+02 0.11404814509E+02 0.12153360838E+02 0.13011705129E+02
 0.13946391335E+02 0.14941052005E+02 0.15948910277E+02 0.16905850205E+02 0.17713385116E+02
 0.18228246930E+02 0.18258007301E+02 0.17573416706E+02 0.15953372096E+02 0.13284099717E+02
 0.97204596943E+01 0.58637761874E+01 0.27909309849E+01 0.16472804834E+01 0.27111542305E+01
 0.46854907061E+01 0.55446474648E+01 0.44645588310E+01 0.23495254243E+01 0.75165253341E+00
 0.89761988460E+00 0.31222108383E+01 0.68022859158E+01 0.10885643895E+02 0.14487712937E+02
 0.16076387396E+02 0.17804761517E+02 0.18646864972E+02 0.18784957933E+02 0.18423706573E+02
 0.17742765239E+02 0.16880479030E+02 0.15934046658E+02 0.14968103997E+02 0.14035501654E+02
 0.13138136512E+02 0.12329873248E+02 0.11601338097E+02 0.10946742042E+02 0.10363048231E+02
 0.98483696071E+01 0.94005678998E+01 0.90166766174E+01 0.86932143713E+01 0.84269966140E+01
 0.82159000850E+01 0.80592024916E+01 0.79574597909E+01 0.79121723259E+01 0.79255592419E+01
 0.80005894512E+01 0.81411485536E+01 0.83520578381E+01 0.86387284959E+01 0.90064975966E+01
 0.94599857308E+01 0.10002938497E+02 0.10638841182E+02 0.11372162514E+02 0.12209593247E+02
 0.13160380347E+02 0.14153492311E+02 0.15198911844E+02 0.16231543922E+02 0.17175252846E+02
 0.17916689222E+02 0.18298048969E+02 0.18118931884E+02 0.17159779864E+02 0.15242723196E+02
 0.12344262554E+02 0.87468672069E+01 0.51467562082E+01 0.25327011855E+01 0.16472806378E+01
 0.22438469384E+01 0.30211484089E+01 0.27932783049E+01 0.16505727780E+01 0.67901266845E+00
 0.95148358671E+00 0.28902654714E+01 0.61471657166E+01 0.99143372290E+01 0.13391347018E+02
 0.15325918721E+02 0.17030481879E+02 0.17909126359E+02 0.18101318377E+02 0.17787731069E+02
 0.17139047582E+02 0.16293155655E+02 0.15350671390E+02 0.14379999849E+02 0.13447248359E+02
 0.12522634874E+02 0.11692519321E+02 0.10946742060E+02 0.10278385336E+02 0.96835016808E+01
 0.91597908036E+01 0.87051469227E+01 0.83168081324E+01 0.79913649551E+01 0.77253996719E+01
 0.75162675950E+01 0.73625809745E+01 0.72642319737E+01 0.72221042618E+01 0.72377845657E+01
 0.73135117288E+01 0.74523607621E+01 0.76584296459E+01 0.79367427102E+01 0.82927527283E+01
 0.87316162900E+01 0.92576508032E+01 0.98743891026E+01 0.10585370744E+02 0.11395349772E+02
 0.12311191241E+02 0.13310039518E+02 0.14368580430E+02 0.15444935719E+02 0.16481578747E+02
 0.17392840492E+02 0.18056077844E+02 0.18308560835E+02 0.17956695978E+02 0.16809230725E+02
 0.14746814675E+02 0.11829772734E+02 0.84096993477E+01 0.51467557347E+01 0.27909304418E+01
 0.17098142341E+01 0.15291606325E+01 0.14513496263E+01 0.11016259947E+01 0.88740759426E+00
 0.15110783540E+01 0.33510034300E+01 0.62352643622E+01 0.95938069633E+01 0.12779697099E+02
 0.14924594804E+02 0.16483370992E+02 0.17310264888E+02 0.17501842393E+02 0.17207111281E+02
 0.16578751411E+02 0.15747090701E+02 0.14811271756E+02 0.13840723783E+02 0.12882023373E+02
 0.11970421329E+02 0.11122804287E+02 0.10363048284E+02 0.96835017149E+01 0.90794151461E+01
 0.85479823751E+01 0.80869756603E+01 0.76937406972E+01 0.73649501804E+01 0.70970487666E+01
 0.68869946555E+01 0.67328455654E+01 0.66339284563E+01 0.65906308657E+01 0.66040753463E+01
 0.66759621320E+01 0.68086901632E+01 0.70056191580E+01 0.72711858201E+01 0.76106410056E+01
 0.80294087482E+01 0.85323468423E+01 0.91233385810E+01 0.98055456672E+01 0.10582307714E+02
 0.11458233583E+02 0.12439729365E+02 0.13481391292E+02 0.14572141697E+02 0.15661088277E+02
 0.16685116642E+02 0.17553097361E+02 0.18140340565E+02 0.18290052817E+02 0.17829432512E+02
 0.16608601096E+02 0.14569024266E+02 0.11829772298E+02 0.87468661830E+01 0.58637747452E+01
 0.36936071528E+01 0.24247062021E+01 0.18464433300E+01 0.16640012868E+01 0.18756058301E+01
 0.27504317118E+01 0.44933660632E+01 0.70015430018E+01 0.98851290923E+01 0.12657127379E+02
 0.14852582254E+02 0.16167330104E+02 0.16863476355E+02 0.17000165425E+02 0.16692273190E+02
 0.16068775543E+02 0.15246331233E+02 0.14317905851E+02 0.13351049056E+02 0.12392086885E+02
 0.11479515306E+02 0.10618985976E+02 0.98483697122E+01 0.91597908863E+01 0.85479824218E+01
 0.80097063998E+01 0.75425702492E+01 0.71439764951E+01 0.68106901043E+01 0.65390948039E+01
 0.63258552771E+01 0.61685614431E+01 0.60660337711E+01 0.60182232627E+01 0.60258896813E+01
 0.60903459961E+01 0.62134649956E+01 0.63979232212E+01 0.66474531213E+01 0.69668206680E+01
 0.73613848745E+01 0.78363549455E+01 0.83960927215E+01 0.90438660186E+01 0.97822729383E+01
 0.10614184025E+02 0.11543661845E+02 0.12576130625E+02 0.13641168687E+02 0.14747277010E+02
 0.15833396284E+02 0.16833651069E+02 0.17656602180E+02 0.18182922439E+02 0.18271859294E+02
 0.17781489240E+02 0.16608600974E+02 0.14746814128E+02 0.12344261349E+02 0.97204578018E+01
 0.72939122766E+01 0.54233982115E+01 0.42654515966E+01 0.37925779953E+01 0.39536823524E+01
 0.47737203289E+01 0.62745284349E+01 0.83407852776E+01 0.10690600843E+02 0.12965258752E+02
 0.15047923153E+02 0.16054212408E+02 0.16560877119E+02 0.16597603457E+02 0.16247124240E+02
 0.15612402207E+02 0.14792736354E+02 0.13871197475E+02 0.12910605211E+02 0.11955401050E+02
 0.11047016734E+02 0.10178659584E+02 0.94005680769E+01 0.87051470699E+01 0.80869757665E+01
 0.75425703061E+01 0.70694259210E+01 0.66650068181E+01 0.63261998373E+01 0.60494068193E+01
 0.58311037561E+01 0.56685006840E+01 0.55599588304E+01 0.55050154981E+01 0.55041110404E+01
 0.55582702145E+01 0.56689800748E+01 0.58383431018E+01 0.60693705681E+01 0.63661492507E+01
 0.67336493183E+01 0.71771324544E+01 0.77013673126E+01 0.83100251896E+01 0.90056021235E+01
 0.97899717219E+01 0.10665306413E+02 0.11634790442E+02 0.12702466968E+02 0.13774015352E+02
 0.14880876038E+02 0.15952483044E+02 0.16923445860E+02 0.17706869835E+02 0.18195570189E+02
 0.18271859433E+02 0.17829432573E+02 0.16809230432E+02 0.15242722287E+02 0.13284098039E+02
 0.11202406432E+02 0.93164258138E+01 0.78954792331E+01 0.70911327204E+01 0.69482545477E+01
 0.74529793442E+01 0.85459545003E+01 0.10091423727E+02 0.11865423459E+02 0.13598636658E+02
 0.15421226571E+02 0.16092197702E+02 0.16377008415E+02 0.16284192123E+02 0.15869128908E+02
 0.15209713949E+02 0.14386578929E+02 0.13470734719E+02 0.12518212429E+02 0.11570079982E+02
 0.10669348060E+02 0.97985594246E+01 0.90166768899E+01 0.83168083625E+01 0.76937408776E+01
 0.71439766206E+01 0.66650068839E+01 0.62543999407E+01 0.59092079251E+01 0.56259319325E+01
 0.54009697982E+01 0.52312535146E+01 0.51147437559E+01 0.50505782070E+01 0.50388839168E+01
 0.50804449897E+01 0.51764724249E+01 0.53286291703E+01 0.55392780604E+01 0.58117509240E+01
 0.61503834053E+01 0.65601598273E+01 0.70460209395E+01 0.76120982443E+01 0.82612341237E+01
 0.89950545516E+01 0.98145941135E+01 0.10721139429E+02 0.11716722395E+02 0.12773074854E+02
 0.13868577873E+02 0.14964242276E+02 0.16013140913E+02 0.16953405705E+02 0.17706870111E+02
 0.18182922888E+02 0.18290053267E+02 0.17956696200E+02 0.17159779606E+02 0.15953371154E+02
 0.14482066817E+02 0.12963626617E+02 0.11638154973E+02 0.10706341125E+02 0.10287532168E+02
 0.10412747042E+02 0.11034168936E+02 0.12032632707E+02 0.13230742954E+02 0.14423177270E+02
 0.15872515748E+02 0.16217366604E+02 0.16275411007E+02 0.16041812336E+02 0.15550664194E+02
 0.14858177032E+02 0.14027155699E+02 0.13115977666E+02 0.12172806925E+02 0.11234346836E+02
 0.10343159765E+02 0.94751891702E+01 0.86932147655E+01 0.79913652897E+01 0.73649504525E+01
 0.68106903122E+01 0.63261999796E+01 0.59092079988E+01 0.55569728960E+01 0.52661645498E+01
 0.50332073886E+01 0.48548667991E+01 0.47287813942E+01 0.46537154049E+01 0.46294753561E+01
 0.46566124837E+01 0.47361287762E+01 0.48693754547E+01 0.50581978718E+01 0.53052136438E+01
 0.56140018569E+01 0.59889931429E+01 0.64349858786E+01 0.69564112843E+01 0.75566314131E+01
 0.82375879970E+01 0.89999862343E+01 0.98439322436E+01 0.10769657664E+02 0.11777805487E+02
 0.12832750254E+02 0.13917580534E+02 0.14992531591E+02 0.16013141233E+02 0.16923446474E+02
 0.17656603017E+02 0.18140341499E+02 0.18308561687E+02 0.18118932441E+02 0.17573416762E+02
 0.16734470461E+02 0.15726813319E+02 0.14717923361E+02 0.13879901379E+02 0.13348021196E+02
 0.13192051018E+02 0.13406436965E+02 0.13916787370E+02 0.14597097644E+02 0.15296722587E+02
 0.16308069736E+02 0.16365888574E+02 0.16216435085E+02 0.15848381431E+02 0.15281062856E+02
 0.14553558039E+02 0.13713247019E+02 0.12806663592E+02 0.11874010715E+02 0.10947234160E+02
 0.10066278731E+02 0.92057488804E+01 0.84269971564E+01 0.77254001335E+01 0.70970491491E+01
 0.65390951097E+01 0.60494070506E+01 0.56259320896E+01 0.52661646306E+01 0.49669892642E+01
 0.47249398326E+01 0.45367205520E+01 0.43997394233E+01 0.43124328904E+01 0.42742850184E+01
 0.42855992376E+01 0.43471923081E+01 0.44601985819E+01 0.46260930359E+01 0.48469048487E+01
 0.51254670564E+01 0.54654965647E+01 0.58713543403E+01 0.63474796888E+01 0.68976616162E+01
 0.75244220600E+01 0.82287746276E+01 0.90104706345E+01 0.98685992801E+01 0.10802176697E+02
 0.11810262311E+02 0.12853221100E+02 0.13917580846E+02 0.14964242916E+02 0.15952484002E+02
 0.16833652302E+02 0.17553098782E+02 0.18056079323E+02 0.18298050341E+02 0.18258008389E+02
 0.17951548547E+02 0.17438042512E+02 0.16816157987E+02 0.16205575402E+02 0.15719193472E+02
 0.15435573951E+02 0.15381013276E+02 0.15526229644E+02 0.15796363531E+02 0.16090974092E+02
 0.16654886317E+02 0.16484812033E+02 0.16164819937E+02 0.15682790166E+02 0.15049305050E+02
 0.14291218013E+02 0.13443632958E+02 0.12542999803E+02 0.11622290640E+02 0.10708864154E+02
 0.98382155714E+01 0.89888108756E+01 0.82159008004E+01 0.75162682053E+01 0.68869951671E+01
 0.63258556965E+01 0.58311040892E+01 0.54009700490E+01 0.50332075581E+01 0.47249399190E+01
 0.44728640424E+01 0.42737076727E+01 0.41247381100E+01 0.40241242537E+01 0.39710397051E+01
 0.39655185159E+01 0.40081813217E+01 0.40999935475E+01 0.42421834615E+01 0.44363535727E+01
 0.46847062213E+01 0.49902237528E+01 0.53566355390E+01 0.57880798367E+01 0.62885018452E+01
 0.68609639429E+01 0.75071153861E+01 0.82270306393E+01 0.90194737763E+01 0.98824315218E+01
 0.10813575178E+02 0.11810262594E+02 0.12832750849E+02 0.13868578805E+02 0.14880877311E+02
 0.15833397875E+02 0.16685118499E+02 0.17392842527E+02 0.17916691312E+02 0.18228248937E+02
 0.18319480423E+02 0.18210108829E+02 0.17948882090E+02 0.17606816483E+02 0.17262074631E+02
 0.16980919193E+02 0.16801036031E+02 0.16723077078E+02 0.16712720489E+02 0.16711863310E+02
 0.16869970361E+02 0.16539591508E+02 0.16095551545E+02 0.15528986305E+02 0.14846518521E+02
 0.14067260027E+02 0.13217468283E+02 0.12325733245E+02 0.11418912246E+02 0.10520352952E+02
 0.96601185038E+01 0.88244785481E+01 0.80592034015E+01 0.73625817531E+01 0.67328462232E+01
 0.61685619905E+01 0.56685011309E+01 0.52312538685E+01 0.48548670643E+01 0.45367207298E+01
 0.42737077621E+01 0.40626404249E+01 0.39007227162E+01 0.37859208756E+01 0.37171237876E+01
 0.36940790346E+01 0.37171789916E+01 0.37872210010E+01 0.39052604122E+01 0.40726204786E+01
 0.42910407670E+01 0.45628670223E+01 0.48911427016E+01 0.52794786596E+01 0.57316545370E+01
 0.62510181754E+01 0.68398522570E+01 0.74989205799E+01 0.82273565011E+01 0.90229155392E+01
 0.98824317583E+01 0.10802177213E+02 0.11777806328E+02 0.12773076035E+02 0.13774016891E+02
 0.14747278901E+02 0.15661090492E+02 0.16481581230E+02 0.17175255516E+02 0.17713387869E+02
 0.18078032623E+02 0.18267217873E+02 0.18298304367E+02 0.18206457602E+02 0.18037833787E+02
 0.17838621341E+02 0.17643281216E+02 0.17465819453E+02 0.17297463105E+02 0.17110985248E+02
 0.16942061477E+02 0.16516893739E+02 0.15997047474E+02 0.15378721456E+02 0.14668107077E+02
 0.13880128342E+02 0.13035270907E+02 0.12156406055E+02 0.11265811009E+02 0.10383660174E+02
 0.95344103136E+01 0.87141307241E+01 0.79574609134E+01 0.72642329371E+01 0.66339292751E+01
 0.60660344594E+01 0.55599594013E+01 0.51147442207E+01 0.47287817605E+01 0.43997396957E+01
 0.41247382902E+01 0.39007228054E+01 0.37248991989E+01 0.35950946418E+01 0.35099494634E+01
 0.34689182776E+01 0.34721260012E+01 0.35201665405E+01 0.36139379233E+01 0.37545802337E+01
 0.39435327882E+01 0.41826693276E+01 0.44744220952E+01 0.48217864627E+01 0.52281214962E+01
 0.56967286608E+01 0.62302812522E+01 0.68302555151E+01 0.74965410429E+01 0.82273566973E+01
 0.90194742068E+01 0.98685999852E+01 0.10769658686E+02 0.11716723778E+02 0.12702468755E+02
 0.13641170810E+02 0.14572144185E+02 0.15444938541E+02 0.16231547025E+02 0.16905853517E+02
 0.17446684653E+02 0.17841768510E+02 0.18090546135E+02 0.18204938864E+02 0.18207111456E+02
 0.18124043784E+02 0.17980423109E+02 0.17792260522E+02 0.17563220865E+02 0.17285081601E+02
 0.16886280795E+02 0.16422505728E+02 0.15870648814E+02 0.15232225426E+02 0.14514747037E+02
 0.13731381575E+02 0.12899350484E+02 0.12037807429E+02 0.11165903095E+02 0.10301508721E+02
 0.94644582270E+01 0.86600755530E+01 0.79121736759E+01 0.72221054241E+01 0.65906318581E+01
 0.60182241026E+01 0.55050162018E+01 0.50505787888E+01 0.46537158761E+01 0.43124332587E+01
 0.40241245241E+01 0.37859210516E+01 0.35950947272E+01 0.34493987984E+01 0.33472712900E+01
 0.32878821280E+01 0.32710554472E+01 0.32971274936E+01 0.33668049576E+01 0.34810741358E+01
 0.36411858899E+01 0.38487103260E+01 0.41056222673E+01 0.44143509207E+01 0.47777168210E+01
 0.51986984829E+01 0.56800231782E+01 0.62236475478E+01 0.68302556755E+01 0.74989209348E+01
 0.82270312246E+01 0.90104714879E+01 0.98439334043E+01 0.10721140937E+02 0.11634792338E+02
 0.12576132947E+02 0.13481393970E+02 0.14368583485E+02 0.15198915246E+02 0.15948913977E+02
 0.16597446133E+02 0.17127896173E+02 0.17530437913E+02 0.17803354397E+02 0.17952803022E+02
 0.17990725903E+02 0.17931256744E+02 0.17786624996E+02 0.17564135576E+02 0.17265116998E+02
 0.16734409973E+02 0.16275683035E+02 0.15727911026E+02 0.15096819343E+02 0.14391769619E+02
 0.13625671611E+02 0.12814151018E+02 0.11974267124E+02 0.11123275728E+02 0.10288586851E+02
 0.94544637745E+01 0.86653918702E+01 0.79255608317E+01 0.72377859386E+01 0.66040765230E+01
 0.60258906820E+01 0.55041118840E+01 0.50388846206E+01 0.46294759345E+01 0.42742854825E+01
 0.39710400631E+01 0.37171240460E+01 0.35099496281E+01 0.33472713681E+01 0.32273860170E+01
 0.31492072144E+01 0.31122426258E+01 0.31165172415E+01 0.31624829221E+01 0.32509412625E+01
 0.33829943671E+01 0.35600289958E+01 0.37837294253E+01 0.40560982463E+01 0.43794442057E+01
 0.47562833853E+01 0.51891090435E+01 0.56800233063E+01 0.62302815393E+01 0.68398527357E+01
 0.75071160901E+01 0.82287755920E+01 0.89999874956E+01 0.98145957088E+01 0.10665308380E+02
 0.11543664219E+02 0.12439732179E+02 0.13310042711E+02 0.14153495894E+02 0.14941055948E+02
 0.15652275889E+02 0.16269133580E+02 0.16777411563E+02 0.17167932277E+02 0.17437119523E+02
 0.17586490839E+02 0.17621175552E+02 0.17547920290E+02 0.17372973239E+02 0.17100861011E+02
 0.16524655528E+02 0.16102129792E+02 0.15585709507E+02 0.14983875527E+02 0.14307522166E+02
 0.13569803429E+02 0.12785758565E+02 0.11971490677E+02 0.11161909141E+02 0.10321360620E+02
 0.95094742276E+01 0.87339877121E+01 0.80005912905E+01 0.73135133219E+01 0.66759635021E+01
 0.60903471654E+01 0.55582712043E+01 0.50804458196E+01 0.46566131710E+01 0.42855997966E+01
 0.39655189582E+01 0.36940793696E+01 0.34689185143E+01 0.32878822753E+01 0.31492072825E+01
 0.30516055467E+01 0.29942808564E+01 0.29769126708E+01 0.29996302443E+01 0.30629815171E+01
 0.31678916620E+01 0.33156097751E+01 0.35076524120E+01 0.37457568799E+01 0.40318463683E+01
 0.43679855495E+01 0.47562834843E+01 0.51986987088E+01 0.56967290432E+01 0.62510187452E+01
 0.68609647319E+01 0.75244231011E+01 0.82375893240E+01 0.89950561987E+01 0.97899737238E+01
 0.10614186415E+02 0.11458236393E+02 0.12311194498E+02 0.13160384071E+02 0.13946395399E+02
 0.14691839793E+02 0.15363071682E+02 0.15943848527E+02 0.16421103521E+02 0.16785597655E+02
 0.17032132226E+02 0.17159291029E+02 0.17168432128E+02 0.17062826756E+02 0.16846668615E+02
 0.16293824092E+02 0.15928019118E+02 0.15462220900E+02 0.14906149211E+02 0.14271373097E+02
 0.13571346458E+02 0.12820957732E+02 0.12035999390E+02 0.11238927214E+02 0.10427710443E+02
 0.96352419945E+01 0.88706571574E+01 0.81411506484E+01 0.74523625818E+01 0.68086917328E+01
 0.62134663392E+01 0.56689812155E+01 0.51764733841E+01 0.47361295736E+01 0.43471929609E+01
 0.40081818446E+01 0.37171793974E+01 0.34721263018E+01 0.32710556542E+01 0.31122427512E+01
 0.29942809127E+01 0.29161181979E+01 0.28770888112E+01 0.28769518288E+01 0.29159241867E+01
 0.29946815970E+01 0.31143085249E+01 0.32762015680E+01 0.34819542959E+01 0.37332592411E+01
 0.40318464415E+01 0.43794443766E+01 0.47777171164E+01 0.52281219444E+01 0.57316551674E+01
 0.62885026877E+01 0.68976627017E+01 0.75566327729E+01 0.82612357896E+01 0.90056041278E+01
 0.97822753126E+01 0.10582310488E+02 0.11395352973E+02 0.12209596895E+02 0.13011709239E+02
 0.13786806058E+02 0.14472358399E+02 0.15103440801E+02 0.15645644733E+02 0.16086441838E+02
 0.16416454728E+02 0.16629620498E+02 0.16722965879E+02 0.16696333289E+02 0.16551905209E+02
 0.16073278405E+02 0.15776699275E+02 0.15374279308E+02 0.14875585364E+02 0.14292239322E+02