<?xml version="1.0" encoding="ISO-8859-1"?>
<modeling>
 <generator>
  <i name="program" type="string">vasp </i>
  <i name="version" type="string">5.4.1  </i>
  <i name="subversion" type="string">05Feb16 (build Sep 03 2018 13:27:33) complex                          parallel </i>
  <i name="platform" type="string">IFC91_ompi </i>
  <i name="date" type="string">2019 03 18 </i>
  <i name="time" type="string">15:18:56 </i>
 </generator>
 <incar>
  <i type="string" name="PREC">normal</i>
  <i type="string" name="ALGO"> Normal</i>
  <i type="int" name="NSIM">     1</i>
  <i type="logical" name="LSORBIT"> T  </i>
  <i type="logical" name="LNONCOLLINEAR"> T  </i>
  <i type="int" name="ISPIN">     2</i>
  <i type="int" name="NELM">   100</i>
  <i type="int" name="IBRION">     2</i>
  <i name="EDIFF">      0.00010000</i>
  <i type="int" name="NSW">     0</i>
  <i name="ENCUT">    520.00000000</i>
  <i type="int" name="NGX">    30</i>
  <i type="int" name="NGY">    30</i>
  <i type="int" name="NGZ">    30</i>
  <i type="string" name="LREAL"> Auto</i>
  <i type="int" name="ISMEAR">     0</i>
  <i name="SIGMA">      0.20000000</i>
  <i type="logical" name="LWAVE"> T  </i>
  <i type="logical" name="LORBIT"> F  </i>
  <i type="logical" name="LAECHG"> T  </i>
  <v type="int" name="KPOINT_BSE">    -1     0     0     0</v>
  <i type="int" name="NELM">   100</i>
 </incar>
 <kpoints>
  <generation param="Monkhorst-Pack">
   <v type="int" name="divisions">       2        2        2 </v>
   <v name="usershift">      0.00000000       0.00000000       0.00000000 </v>
   <v name="genvec1">      0.50000000       0.00000000       0.00000000 </v>
   <v name="genvec2">     -0.00000000       0.50000000       0.00000000 </v>
   <v name="genvec3">      0.00000000       0.00000000       0.50000000 </v>
   <v name="shift">      0.50000000       0.50000000       0.50000000 </v>
  </generation>
  <varray name="kpointlist" >
   <v>       0.25000000       0.25000000       0.25000000 </v>
   <v>      -0.25000000       0.25000000       0.25000000 </v>
   <v>       0.25000000      -0.25000000       0.25000000 </v>
   <v>      -0.25000000      -0.25000000       0.25000000 </v>
  </varray>
  <varray name="weights" >
   <v>       0.25000000 </v>
   <v>       0.25000000 </v>
   <v>       0.25000000 </v>
   <v>       0.25000000 </v>
  </varray>
 </kpoints>
 <parameters>
  <separator name="general" >
   <i type="string" name="SYSTEM">unknown system</i>
   <i type="logical" name="LCOMPAT"> F  </i>
  </separator>
  <separator name="electronic" >
   <i type="string" name="PREC">normal</i>
   <i name="ENMAX">    520.00000000</i>
   <i name="ENAUG">    320.26400000</i>
   <i name="EDIFF">      0.00010000</i>
   <i type="int" name="IALGO">    38</i>
   <i type="int" name="IWAVPR">    10</i>
   <i type="int" name="NBANDS">    24</i>
   <i name="NELECT">     12.00000000</i>
   <i type="int" name="TURBO">     0</i>
   <i type="int" name="IRESTART">     0</i>
   <i type="int" name="NREBOOT">     0</i>
   <i type="int" name="NMIN">     0</i>
   <i name="EREF">      0.00000000</i>
   <separator name="electronic smearing" >
    <i type="int" name="ISMEAR">     0</i>
    <i name="SIGMA">      0.20000000</i>
    <i name="KSPACING">      0.50000000</i>
    <i type="logical" name="KGAMMA"> T  </i>
   </separator>
   <separator name="electronic projectors" >
    <i type="logical" name="LREAL"> T  </i>
    <v name="ROPT">     -0.00050000</v>
    <i type="int" name="LMAXPAW">  -100</i>
    <i type="int" name="LMAXMIX">     2</i>
    <i type="logical" name="NLSPLINE"> F  </i>
   </separator>
   <separator name="electronic startup" >
    <i type="int" name="ISTART">     1</i>
    <i type="int" name="ICHARG">     0</i>
    <i type="int" name="INIWAV">     1</i>
   </separator>
   <separator name="electronic spin" >
    <i type="int" name="ISPIN">     1</i>
    <i type="logical" name="LNONCOLLINEAR"> T  </i>
    <v name="MAGMOM">      1.00000000      1.00000000      1.00000000      1.00000000      1.00000000      1.00000000      1.00000000      1.00000000      1.00000000      1.00000000      1.00000000      1.00000000</v>
    <i name="NUPDOWN">     -1.00000000</i>
    <i type="logical" name="LSORBIT"> T  </i>
    <v name="SAXIS">      0.00000000      0.00000000      1.00000000</v>
    <i type="logical" name="LSPIRAL"> F  </i>
    <v name="QSPIRAL">      0.00000000      0.00000000      0.00000000</v>
    <i type="logical" name="LZEROZ"> F  </i>
   </separator>
   <separator name="electronic exchange-correlation" >
    <i type="logical" name="LASPH"> F  </i>
    <i type="logical" name="LMETAGGA"> F  </i>
   </separator>
   <separator name="electronic convergence" >
    <i type="int" name="NELM">   100</i>
    <i type="int" name="NELMDL">     0</i>
    <i type="int" name="NELMIN">     2</i>
    <i name="ENINI">    520.00000000</i>
    <separator name="electronic convergence detail" >
     <i type="logical" name="LDIAG"> T  </i>
     <i type="logical" name="LSUBROT"> F  </i>
     <i name="WEIMIN">      0.00000000</i>
     <i name="EBREAK">      0.00000104</i>
     <i name="DEPER">      0.30000000</i>
     <i type="int" name="NRMM">     4</i>
     <i name="TIME">      0.40000000</i>
    </separator>
   </separator>
   <separator name="electronic mixer" >
    <i name="AMIX">      0.40000000</i>
    <i name="BMIX">      1.00000000</i>
    <i name="AMIN">      0.10000000</i>
    <i name="AMIX_MAG">      1.60000000</i>
    <i name="BMIX_MAG">      1.00000000</i>
    <separator name="electronic mixer details" >
     <i type="int" name="IMIX">     4</i>
     <i type="logical" name="MIXFIRST"> F  </i>
     <i type="int" name="MAXMIX">   -45</i>
     <i name="WC">    100.00000000</i>
     <i type="int" name="INIMIX">     1</i>
     <i type="int" name="MIXPRE">     1</i>
     <i type="int" name="MREMOVE">     5</i>
    </separator>
   </separator>
   <separator name="electronic dipolcorrection" >
    <i type="logical" name="LDIPOL"> F  </i>
    <i type="logical" name="LMONO"> F  </i>
    <i type="int" name="IDIPOL">     0</i>
    <i name="EPSILON">      1.00000000</i>
    <v name="DIPOL">   -100.00000000   -100.00000000   -100.00000000</v>
    <i name="EFIELD">      0.00000000</i>
   </separator>
  </separator>
  <separator name="grids" >
   <i type="int" name="NGX">    30</i>
   <i type="int" name="NGY">    30</i>
   <i type="int" name="NGZ">    30</i>
   <i type="int" name="NGXF">    60</i>
   <i type="int" name="NGYF">    60</i>
   <i type="int" name="NGZF">    60</i>
   <i type="logical" name="ADDGRID"> F  </i>
  </separator>
  <separator name="ionic" >
   <i type="int" name="NSW">     0</i>
   <i type="int" name="IBRION">    -1</i>
   <i type="int" name="ISIF">     2</i>
   <i name="PSTRESS">      0.00000000</i>
   <i name="EDIFFG">      0.00100000</i>
   <i type="int" name="NFREE">     1</i>
   <i name="POTIM">      0.50000000</i>
   <i name="SMASS">     -3.00000000</i>
   <i name="SCALEE">      1.00000000</i>
  </separator>
  <separator name="ionic md" >
   <i name="TEBEG">      0.00010000</i>
   <i name="TEEND">      0.00010000</i>
   <i type="int" name="NBLOCK">     1</i>
   <i type="int" name="KBLOCK">     1</i>
   <i type="int" name="NPACO">   256</i>
   <i name="APACO">     16.00000000</i>
  </separator>
  <separator name="symmetry" >
   <i type="int" name="ISYM">     2</i>
   <i name="SYMPREC">      0.00001000</i>
  </separator>
  <separator name="dos" >
   <i type="logical" name="LORBIT"> F  </i>
   <v name="RWIGS">     -1.00000000</v>
   <i type="int" name="NEDOS">   301</i>
   <i name="EMIN">     10.00000000</i>
   <i name="EMAX">    -10.00000000</i>
   <i name="EFERMI">      0.00000000</i>
  </separator>
  <separator name="writing" >
   <i type="int" name="NWRITE">     2</i>
   <i type="logical" name="LWAVE"> T  </i>
   <i type="logical" name="LCHARG"> T  </i>
   <i type="logical" name="LPARD"> F  </i>
   <i type="logical" name="LVTOT"> F  </i>
   <i type="logical" name="LVHAR"> F  </i>
   <i type="logical" name="LELF"> F  </i>
   <i type="logical" name="LOPTICS"> F  </i>
   <v name="STM">      0.00000000      0.00000000      0.00000000      0.00000000      0.00000000      0.00000000      0.00000000</v>
  </separator>
  <separator name="performance" >
   <i type="int" name="NPAR">    24</i>
   <i type="int" name="NSIM">     1</i>
   <i type="int" name="NBLK">    -1</i>
   <i type="logical" name="LPLANE"> T  </i>
   <i type="logical" name="LSCALAPACK"> T  </i>
   <i type="logical" name="LSCAAWARE"> F  </i>
   <i type="logical" name="LSCALU"> F  </i>
   <i type="logical" name="LASYNC"> F  </i>
   <i type="logical" name="LORBITALREAL"> F  </i>
  </separator>
  <separator name="miscellaneous" >
   <i type="int" name="IDIOT">     3</i>
   <i type="logical" name="LMUSIC"> F  </i>
   <v name="POMASS">     69.72300000</v>
   <v name="DARWINR">      0.00000000</v>
   <v name="DARWINV">      1.00000000</v>
   <i type="logical" name="LCORR"> T  </i>
  </separator>
  <i type="logical" name="GGA_COMPAT"> T  </i>
  <i type="logical" name="LBERRY"> F  </i>
  <i type="int" name="ICORELEVEL">     0</i>
  <i type="logical" name="LDAU"> F  </i>
  <i type="int" name="I_CONSTRAINED_M">     0</i>
  <separator name="electronic exchange-correlation" >
   <i type="string" name="GGA">--</i>
   <i type="int" name="VOSKOWN">     0</i>
   <i type="logical" name="LHFCALC"> F  </i>
   <i type="string" name="PRECFOCK"></i>
   <i type="logical" name="LSYMGRAD"> F  </i>
   <i type="logical" name="LHFONE"> F  </i>
   <i type="logical" name="LRHFCALC"> F  </i>
   <i type="logical" name="LTHOMAS"> F  </i>
   <i type="logical" name="LMODELHF"> F  </i>
   <i name="ENCUT4O">     -1.00000000</i>
   <i type="int" name="EXXOEP">     0</i>
   <i type="int" name="FOURORBIT">     0</i>
   <i name="AEXX">      0.00000000</i>
   <i name="HFALPHA">      0.00000000</i>
   <i name="MCALPHA">      0.00000000</i>
   <i name="ALDAX">      1.00000000</i>
   <i name="AGGAX">      1.00000000</i>
   <i name="ALDAC">      1.00000000</i>
   <i name="AGGAC">      1.00000000</i>
   <i type="int" name="NKREDX">     1</i>
   <i type="int" name="NKREDY">     1</i>
   <i type="int" name="NKREDZ">     1</i>
   <i type="logical" name="SHIFTRED"> F  </i>
   <i type="logical" name="ODDONLY"> F  </i>
   <i type="logical" name="EVENONLY"> F  </i>
   <i type="int" name="LMAXFOCK">     0</i>
   <i type="int" name="NMAXFOCKAE">     0</i>
   <i type="logical" name="LFOCKAEDFT"> F  </i>
   <i name="HFSCREEN">      0.00000000</i>
   <i name="HFSCREENC">      0.00000000</i>
   <i type="int" name="NBANDSGWLOW">     0</i>
  </separator>
  <separator name="vdW DFT" >
   <i type="logical" name="LUSE_VDW"> F  </i>
   <i name="Zab_VDW">     -0.84910000</i>
   <i name="PARAM1">      0.12340000</i>
   <i name="PARAM2">      1.00000000</i>
   <i name="PARAM3">      0.00000000</i>
  </separator>
  <separator name="model GW" >
   <i type="int" name="MODEL_GW">     0</i>
   <i name="MODEL_EPS0">     10.98061938</i>
   <i name="MODEL_ALPHA">      1.00000000</i>
  </separator>
  <separator name="linear response parameters" >
   <i type="logical" name="LEPSILON"> F  </i>
   <i type="logical" name="LRPA"> F  </i>
   <i type="logical" name="LNABLA"> F  </i>
   <i type="logical" name="LVEL"> F  </i>
   <i type="int" name="KINTER">     0</i>
   <i name="CSHIFT">      0.10000000</i>
   <i name="OMEGAMAX">     -1.00000000</i>
   <i name="DEG_THRESHOLD">      0.00200000</i>
  </separator>
  <separator name="orbital magnetization" >
   <i type="logical" name="NUCIND"> F  </i>
   <v name="MAGPOS">      0.00000000      0.00000000      0.00000000</v>
   <i type="logical" name="LNICSALL"> T  </i>
   <i type="logical" name="ORBITALMAG"> F  </i>
   <i type="logical" name="LMAGBLOCH"> F  </i>
   <i type="logical" name="LCHIMAG"> F  </i>
   <i type="logical" name="LGAUGE"> T  </i>
   <i type="int" name="MAGATOM">     0</i>
   <v name="MAGDIPOL">      0.00000000      0.00000000      0.00000000</v>
   <v name="AVECCONST">      0.00000000      0.00000000      0.00000000</v>
  </separator>
  <separator name="response functions" >
   <i type="logical" name="LADDER"> F  </i>
   <i type="logical" name="LFXC"> F  </i>
   <i type="logical" name="LHARTREE"> T  </i>
   <i type="int" name="IBSE">     0</i>
   <v type="int" name="KPOINT">    -1     0     0     0</v>
   <i type="logical" name="LTCTE"> F  </i>
   <i type="logical" name="LTETE"> F  </i>
   <i type="logical" name="LTRIPLET"> F  </i>
   <i type="logical" name="LFXCEPS"> F  </i>
   <i type="logical" name="LFXHEG"> F  </i>
   <i type="int" name="NATURALO">     0</i>
   <i type="logical" name="L2ORDER"> F  </i>
   <i type="logical" name="LUSEW"> F  </i>
   <i name="ENCUTGW">     -2.00000000</i>
   <i name="ENCUTGWSOFT">     -2.00000000</i>
   <i name="ENCUTLF">     -1.00000000</i>
   <i type="int" name="LMAXMP2">    -1</i>
   <i name="SCISSOR">      0.00000000</i>
   <i type="int" name="NOMEGA">     0</i>
   <i type="int" name="NOMEGAR">     0</i>
   <i type="int" name="NBANDSGW">    -1</i>
   <i type="int" name="NBANDSO">    -1</i>
   <i type="int" name="NBANDSV">    -1</i>
   <i type="int" name="NELM">   100</i>
   <i type="int" name="NELMHF">     1</i>
   <i type="int" name="DIM">     3</i>
   <i type="int" name="ANTIRES">     0</i>
   <i name="OMEGAMAX">    -30.00000000</i>
   <i name="OMEGAMIN">    -30.00000000</i>
   <i name="OMEGATL">   -200.00000000</i>
   <i type="int" name="OMEGAGRID">     0</i>
   <i name="CSHIFT">     -0.10000000</i>
   <i type="logical" name="SELFENERGY"> F  </i>
   <i type="logical" name="LSPECTRAL"> F  </i>
   <i type="logical" name="LSPECTRALGW"> F  </i>
   <i type="logical" name="LSINGLES"> F  </i>
   <i type="logical" name="LFERMIGW"> F  </i>
   <i type="logical" name="ODDONLYGW"> F  </i>
   <i type="logical" name="EVENONLYGW"> F  </i>
   <i type="int" name="NKREDLFX">     1</i>
   <i type="int" name="NKREDLFY">     1</i>
   <i type="int" name="NKREDLFZ">     1</i>
   <i type="int" name="MAXMEM">  1800</i>
   <i type="int" name="TELESCOPE">     0</i>
   <i type="int" name="TAUPAR">     1</i>
   <i type="int" name="OMEGAPAR">    -1</i>
   <i name="LAMBDA">      1.00000000</i>
  </separator>
  <separator name="External order field" >
   <i name="OFIELD_KAPPA">      0.00000000</i>
   <v name="OFIELD_K">      0.00000000      0.00000000      0.00000000</v>
   <i name="OFIELD_Q6_NEAR">      0.00000000</i>
   <i name="OFIELD_Q6_FAR">      0.00000000</i>
   <i name="OFIELD_A">      0.00000000</i>
  </separator>
 </parameters>
 <atominfo>
  <atoms>       4 </atoms>
  <types>       1 </types>
  <array name="atoms" >
   <dimension dim="1">ion</dimension>
   <field type="string">element</field>
   <field type="int">atomtype</field>
   <set>
    <rc><c>Ga</c><c>   1</c></rc>
    <rc><c>Ga</c><c>   1</c></rc>
    <rc><c>Ga</c><c>   1</c></rc>
    <rc><c>Ga</c><c>   1</c></rc>
   </set>
  </array>
  <array name="atomtypes" >
   <dimension dim="1">type</dimension>
   <field type="int">atomspertype</field>
   <field type="string">element</field>
   <field>mass</field>
   <field>valence</field>
   <field type="string">pseudopotential</field>
   <set>
    <rc><c>   4</c><c>Ga</c><c>     69.72300000</c><c>      3.00000000</c><c> PAW_PBE Ga 08Apr2002                   </c></rc>
   </set>
  </array>
 </atominfo>
 <structure name="initialpos" >
  <crystal>
   <varray name="basis" >
    <v>       4.35155188       0.01064991       0.00000000 </v>
    <v>      -2.09701412       3.81295742       0.00000000 </v>
    <v>       0.00000000       0.00000000       4.40600814 </v>
   </varray>
   <i name="volume">     73.20412919 </i>
   <varray name="rec_basis" >
    <v>       0.22949418       0.12621503       0.00000000 </v>
    <v>      -0.00064100       0.26191109       0.00000000 </v>
    <v>       0.00000000       0.00000000       0.22696281 </v>
   </varray>
  </crystal>
  <varray name="positions" >
   <v>       0.15604272       0.84395728       0.91665406 </v>
   <v>       0.34395728       0.65604272       0.41665406 </v>
   <v>       0.84395728       0.15604272       0.08334594 </v>
   <v>       0.65604272       0.34395728       0.58334594 </v>
  </varray>
 </structure>
 <calculation>
  <scstep>
   <time name="dav">    0.11    0.13</time>
   <time name="total">    0.20    0.23</time>
   <energy>
    <i name="alphaZ">     38.98778104 </i>
    <i name="ewald">   -273.94013981 </i>
    <i name="hartreedc">     -5.81438412 </i>
    <i name="XCdc">    -75.56836100 </i>
    <i name="pawpsdc">    218.74070412 </i>
    <i name="pawaedc">   -124.86050785 </i>
    <i name="eentropy">     -0.00389502 </i>
    <i name="bandstr">    -24.74745574 </i>
    <i name="atom">    235.47501758 </i>
    <i name="e_fr_energy">    -11.73124079 </i>
    <i name="e_wo_entrp">    -11.72734577 </i>
    <i name="e_0_energy">    -11.72929328 </i>
   </energy>
  </scstep>
  <scstep>
   <time name="dav">    0.07    0.07</time>
   <time name="total">    0.13    0.14</time>
   <energy>
    <i name="alphaZ">     38.98778104 </i>
    <i name="ewald">   -273.94013981 </i>
    <i name="hartreedc">     -5.81440630 </i>
    <i name="XCdc">    -75.56836088 </i>
    <i name="pawpsdc">    218.74074285 </i>
    <i name="pawaedc">   -124.86054679 </i>
    <i name="eentropy">     -0.00389494 </i>
    <i name="bandstr">    -24.74743355 </i>
    <i name="atom">    235.47501758 </i>
    <i name="e_fr_energy">    -11.73124079 </i>
    <i name="e_wo_entrp">    -11.72734585 </i>
    <i name="e_0_energy">    -11.72929332 </i>
   </energy>
  </scstep>
  <structure>
   <crystal>
    <varray name="basis" >
     <v>       4.35155188       0.01064991       0.00000000 </v>
     <v>      -2.09701412       3.81295742       0.00000000 </v>
     <v>       0.00000000       0.00000000       4.40600814 </v>
    </varray>
    <i name="volume">     73.20412919 </i>
    <varray name="rec_basis" >
     <v>       0.22949418       0.12621503       0.00000000 </v>
     <v>      -0.00064100       0.26191109       0.00000000 </v>
     <v>       0.00000000       0.00000000       0.22696281 </v>
    </varray>
   </crystal>
   <varray name="positions" >
    <v>       0.15604272       0.84395728       0.91665406 </v>
    <v>       0.34395728       0.65604272       0.41665406 </v>
    <v>       0.84395728       0.15604272       0.08334594 </v>
    <v>       0.65604272       0.34395728       0.58334594 </v>
   </varray>
  </structure>
  <varray name="forces" >
   <v>      -0.39031279       0.23014254       0.38043151 </v>
   <v>       0.39031280      -0.23014247       0.38043148 </v>
   <v>       0.39031279      -0.23014254      -0.38043151 </v>
   <v>      -0.39031280       0.23014247      -0.38043148 </v>
  </varray>
  <varray name="stress" >
   <v>      82.29375612      33.18874508      -0.00000122 </v>
   <v>      33.18874527     119.01135844       0.00000174 </v>
   <v>      -0.00000121       0.00000173     -26.94681849 </v>
  </varray>
  <energy>
   <i name="e_fr_energy">    -11.73124079 </i>
   <i name="e_wo_entrp">    -11.72929332 </i>
   <i name="e_0_energy">     -0.00389494 </i>
  </energy>
  <time name="totalsc">    2.54    2.76</time>
  <eigenvalues>
   <array>
    <dimension dim="1">band</dimension>
    <dimension dim="2">kpoint</dimension>
    <dimension dim="3">spin</dimension>
    <field>eigene</field>
    <field>occ</field>
    <set>
     <set comment="spin 1">
      <set comment="kpoint 1">
       <r>   -6.3992    1.0000 </r>
       <r>   -6.3992    1.0000 </r>
       <r>   -4.6314    1.0000 </r>
       <r>   -4.6314    1.0000 </r>
       <r>   -3.2424    1.0000 </r>
       <r>   -3.2424    1.0000 </r>
       <r>   -1.5371    1.0000 </r>
       <r>   -1.5371    1.0000 </r>
       <r>   -0.2286    1.0000 </r>
       <r>   -0.2286    1.0000 </r>
       <r>    1.5625    1.0000 </r>
       <r>    1.5625    1.0000 </r>
       <r>    4.7965    0.0000 </r>
       <r>    4.7965    0.0000 </r>
       <r>    5.6395    0.0000 </r>
       <r>    5.6395    0.0000 </r>
       <r>    6.9698    0.0000 </r>
       <r>    6.9698    0.0000 </r>
       <r>    7.7216    0.0000 </r>
       <r>    7.7216    0.0000 </r>
       <r>    8.4014    0.0000 </r>
       <r>    8.4014    0.0000 </r>
       <r>    9.5601    0.0000 </r>
       <r>    9.5601    0.0000 </r>
      </set>
      <set comment="kpoint 2">
       <r>   -7.7339    1.0000 </r>
       <r>   -7.7339    1.0000 </r>
       <r>   -3.9690    1.0000 </r>
       <r>   -3.9690    1.0000 </r>
       <r>   -1.5788    1.0000 </r>
       <r>   -1.5788    1.0000 </r>
       <r>   -0.1307    1.0000 </r>
       <r>   -0.1307    1.0000 </r>
       <r>    0.2443    1.0000 </r>
       <r>    0.2443    1.0000 </r>
       <r>    2.8935    0.9953 </r>
       <r>    2.8935    0.9953 </r>
       <r>    3.6274    0.0047 </r>
       <r>    3.6274    0.0047 </r>
       <r>    4.0763    0.0000 </r>
       <r>    4.0763    0.0000 </r>
       <r>    4.7728    0.0000 </r>
       <r>    4.7728    0.0000 </r>
       <r>    7.2423    0.0000 </r>
       <r>    7.2423    0.0000 </r>
       <r>    7.3814    0.0000 </r>
       <r>    7.3814    0.0000 </r>
       <r>    8.7907    0.0000 </r>
       <r>    8.7907    0.0000 </r>
      </set>
      <set comment="kpoint 3">
       <r>   -7.7339    1.0000 </r>
       <r>   -7.7339    1.0000 </r>
       <r>   -3.9690    1.0000 </r>
       <r>   -3.9690    1.0000 </r>
       <r>   -1.5788    1.0000 </r>
       <r>   -1.5788    1.0000 </r>
       <r>   -0.1307    1.0000 </r>
       <r>   -0.1307    1.0000 </r>
       <r>    0.2443    1.0000 </r>
       <r>    0.2443    1.0000 </r>
       <r>    2.8935    0.9953 </r>
       <r>    2.8935    0.9953 </r>
       <r>    3.6274    0.0047 </r>
       <r>    3.6274    0.0047 </r>
       <r>    4.0763    0.0000 </r>
       <r>    4.0763    0.0000 </r>
       <r>    4.7728    0.0000 </r>
       <r>    4.7728    0.0000 </r>
       <r>    7.2423    0.0000 </r>
       <r>    7.2423    0.0000 </r>
       <r>    7.3814    0.0000 </r>
       <r>    7.3814    0.0000 </r>
       <r>    8.7907    0.0000 </r>
       <r>    8.7907    0.0000 </r>
      </set>
      <set comment="kpoint 4">
       <r>   -6.3992    1.0000 </r>
       <r>   -6.3992    1.0000 </r>
       <r>   -4.6314    1.0000 </r>
       <r>   -4.6314    1.0000 </r>
       <r>   -3.2424    1.0000 </r>
       <r>   -3.2424    1.0000 </r>
       <r>   -1.5371    1.0000 </r>
       <r>   -1.5371    1.0000 </r>
       <r>   -0.2286    1.0000 </r>
       <r>   -0.2286    1.0000 </r>
       <r>    1.5625    1.0000 </r>
       <r>    1.5625    1.0000 </r>
       <r>    4.7965    0.0000 </r>
       <r>    4.7965    0.0000 </r>
       <r>    5.6395    0.0000 </r>
       <r>    5.6395    0.0000 </r>
       <r>    6.9698    0.0000 </r>
       <r>    6.9698    0.0000 </r>
       <r>    7.7216    0.0000 </r>
       <r>    7.7216    0.0000 </r>
       <r>    8.4014    0.0000 </r>
       <r>    8.4014    0.0000 </r>
       <r>    9.5601    0.0000 </r>
       <r>    9.5601    0.0000 </r>
      </set>
     </set>
    </set>
   </array>
  </eigenvalues>
  <separator name="orbital magnetization" >
   <v name="MAGDIPOLOUT">      0.00000000      0.00000000      0.00000000</v>
  </separator>
  <dos>
   <i name="efermi">      3.26049045 </i>
   <total>
    <array>
     <dimension dim="1">gridpoints</dimension>
     <dimension dim="2">spin</dimension>
     <field>energy</field>
     <field>total</field>
     <field>integrated</field>
     <set>
      <set comment="spin 1">
       <r>    -9.7339     0.0000     0.0000 </r>
       <r>    -9.6629     0.0000     0.0000 </r>
       <r>    -9.5919     0.0000     0.0000 </r>
       <r>    -9.5209     0.0000     0.0000 </r>
       <r>    -9.4500     0.0000     0.0000 </r>
       <r>    -9.3790     0.0000     0.0000 </r>
       <r>    -9.3080     0.0000     0.0000 </r>
       <r>    -9.2370     0.0000     0.0000 </r>
       <r>    -9.1660     0.0000     0.0000 </r>
       <r>    -9.0951     0.0000     0.0000 </r>
       <r>    -9.0241     0.0000     0.0000 </r>
       <r>    -8.9531     0.0000     0.0000 </r>
       <r>    -8.8821     0.0000     0.0000 </r>
       <r>    -8.8111     0.0000     0.0000 </r>
       <r>    -8.7402     0.0000     0.0000 </r>
       <r>    -8.6692     0.0000     0.0000 </r>
       <r>    -8.5982     0.0000     0.0000 </r>
       <r>    -8.5272     0.0000     0.0000 </r>
       <r>    -8.4562     0.0000     0.0000 </r>
       <r>    -8.3853     0.0000     0.0000 </r>
       <r>    -8.3143     0.0003     0.0000 </r>
       <r>    -8.2433     0.0019     0.0002 </r>
       <r>    -8.1723     0.0114     0.0010 </r>
       <r>    -8.1013     0.0524     0.0047 </r>
       <r>    -8.0304     0.1879     0.0180 </r>
       <r>    -7.9594     0.5267     0.0554 </r>
       <r>    -7.8884     1.1535     0.1373 </r>
       <r>    -7.8174     1.9735     0.2774 </r>
       <r>    -7.7464     2.6382     0.4646 </r>
       <r>    -7.6755     2.7559     0.6602 </r>
       <r>    -7.6045     2.2495     0.8199 </r>
       <r>    -7.5335     1.4348     0.9217 </r>
       <r>    -7.4625     0.7150     0.9725 </r>
       <r>    -7.3915     0.2784     0.9923 </r>
       <r>    -7.3206     0.0847     0.9983 </r>
       <r>    -7.2496     0.0201     0.9997 </r>
       <r>    -7.1786     0.0037     1.0000 </r>
       <r>    -7.1076     0.0005     1.0000 </r>
       <r>    -7.0366     0.0001     1.0000 </r>
       <r>    -6.9657     0.0004     1.0000 </r>
       <r>    -6.8947     0.0028     1.0002 </r>
       <r>    -6.8237     0.0157     1.0013 </r>
       <r>    -6.7527     0.0686     1.0062 </r>
       <r>    -6.6817     0.2345     1.0229 </r>
       <r>    -6.6108     0.6263     1.0673 </r>
       <r>    -6.5398     1.3067     1.1601 </r>
       <r>    -6.4688     2.1301     1.3113 </r>
       <r>    -6.3978     2.7131     1.5038 </r>
       <r>    -6.3268     2.7003     1.6955 </r>
       <r>    -6.2559     2.1001     1.8446 </r>
       <r>    -6.1849     1.2762     1.9352 </r>
       <r>    -6.1139     0.6059     1.9782 </r>
       <r>    -6.0429     0.2248     1.9941 </r>
       <r>    -5.9719     0.0651     1.9987 </r>
       <r>    -5.9010     0.0147     1.9998 </r>
       <r>    -5.8300     0.0026     2.0000 </r>
       <r>    -5.7590     0.0004     2.0000 </r>
       <r>    -5.6880     0.0000     2.0000 </r>
       <r>    -5.6170     0.0000     2.0000 </r>
       <r>    -5.5461     0.0000     2.0000 </r>
       <r>    -5.4751     0.0000     2.0000 </r>
       <r>    -5.4041     0.0000     2.0000 </r>
       <r>    -5.3331     0.0000     2.0000 </r>
       <r>    -5.2621     0.0001     2.0000 </r>
       <r>    -5.1912     0.0005     2.0000 </r>
       <r>    -5.1202     0.0033     2.0003 </r>
       <r>    -5.0492     0.0182     2.0016 </r>
       <r>    -4.9782     0.0779     2.0071 </r>
       <r>    -4.9072     0.2602     2.0256 </r>
       <r>    -4.8363     0.6788     2.0737 </r>
       <r>    -4.7653     1.3834     2.1719 </r>
       <r>    -4.6943     2.2028     2.3283 </r>
       <r>    -4.6233     2.7408     2.5228 </r>
       <r>    -4.5523     2.6650     2.7120 </r>
       <r>    -4.4814     2.0262     2.8558 </r>
       <r>    -4.4104     1.2123     2.9419 </r>
       <r>    -4.3394     0.6067     2.9849 </r>
       <r>    -4.2684     0.3810     3.0120 </r>
       <r>    -4.1974     0.5643     3.0520 </r>
       <r>    -4.1265     1.1346     3.1326 </r>
       <r>    -4.0555     1.9416     3.2704 </r>
       <r>    -3.9845     2.6197     3.4563 </r>
       <r>    -3.9135     2.7645     3.6526 </r>
       <r>    -3.8425     2.2799     3.8144 </r>
       <r>    -3.7716     1.4702     3.9187 </r>
       <r>    -3.7006     0.7468     3.9717 </r>
       <r>    -3.6296     0.3261     3.9949 </r>
       <r>    -3.5586     0.2245     4.0108 </r>
       <r>    -3.4876     0.4270     4.0411 </r>
       <r>    -3.4167     0.9551     4.1089 </r>
       <r>    -3.3457     1.7432     4.2327 </r>
       <r>    -3.2747     2.4949     4.4098 </r>
       <r>    -3.2037     2.7909     4.6078 </r>
       <r>    -3.1327     2.4396     4.7810 </r>
       <r>    -3.0618     1.6664     4.8993 </r>
       <r>    -2.9908     0.8893     4.9624 </r>
       <r>    -2.9198     0.3708     4.9887 </r>
       <r>    -2.8488     0.1208     4.9973 </r>
       <r>    -2.7778     0.0307     4.9995 </r>
       <r>    -2.7069     0.0061     4.9999 </r>
       <r>    -2.6359     0.0009     5.0000 </r>
       <r>    -2.5649     0.0001     5.0000 </r>
       <r>    -2.4939     0.0000     5.0000 </r>
       <r>    -2.4229     0.0000     5.0000 </r>
       <r>    -2.3520     0.0000     5.0000 </r>
       <r>    -2.2810     0.0000     5.0000 </r>
       <r>    -2.2100     0.0001     5.0000 </r>
       <r>    -2.1390     0.0006     5.0000 </r>
       <r>    -2.0680     0.0044     5.0004 </r>
       <r>    -1.9971     0.0249     5.0021 </r>
       <r>    -1.9261     0.1111     5.0100 </r>
       <r>    -1.8551     0.3892     5.0376 </r>
       <r>    -1.7841     1.0705     5.1136 </r>
       <r>    -1.7131     2.3113     5.2777 </r>
       <r>    -1.6422     3.9189     5.5558 </r>
       <r>    -1.5712     5.2187     5.9263 </r>
       <r>    -1.5002     5.4589     6.3137 </r>
       <r>    -1.4292     4.4854     6.6321 </r>
       <r>    -1.3582     2.8948     6.8376 </r>
       <r>    -1.2873     1.4672     6.9417 </r>
       <r>    -1.2163     0.5839     6.9832 </r>
       <r>    -1.1453     0.1824     6.9961 </r>
       <r>    -1.0743     0.0447     6.9993 </r>
       <r>    -1.0033     0.0086     6.9999 </r>
       <r>    -0.9324     0.0013     7.0000 </r>
       <r>    -0.8614     0.0002     7.0000 </r>
       <r>    -0.7904     0.0005     7.0000 </r>
       <r>    -0.7194     0.0034     7.0003 </r>
       <r>    -0.6484     0.0190     7.0016 </r>
       <r>    -0.5775     0.0844     7.0076 </r>
       <r>    -0.5065     0.2966     7.0287 </r>
       <r>    -0.4355     0.8267     7.0873 </r>
       <r>    -0.3645     1.8333     7.2175 </r>
       <r>    -0.2935     3.2482     7.4480 </r>
       <r>    -0.2226     4.6163     7.7757 </r>
       <r>    -0.1516     5.2884     8.1511 </r>
       <r>    -0.0806     4.9405     8.5017 </r>
       <r>    -0.0096     3.9161     8.7797 </r>
       <r>     0.0614     2.9713     8.9906 </r>
       <r>     0.1323     2.6337     9.1776 </r>
       <r>     0.2033     2.7937     9.3758 </r>
       <r>     0.2743     2.9013     9.5818 </r>
       <r>     0.3453     2.5396     9.7620 </r>
       <r>     0.4163     1.7741     9.8880 </r>
       <r>     0.4872     0.9739     9.9571 </r>
       <r>     0.5582     0.4183     9.9868 </r>
       <r>     0.6292     0.1404     9.9968 </r>
       <r>     0.7002     0.0368     9.9994 </r>
       <r>     0.7712     0.0075     9.9999 </r>
       <r>     0.8421     0.0012    10.0000 </r>
       <r>     0.9131     0.0002    10.0000 </r>
       <r>     0.9841     0.0003    10.0000 </r>
       <r>     1.0551     0.0020    10.0002 </r>
       <r>     1.1261     0.0119    10.0010 </r>
       <r>     1.1970     0.0545    10.0049 </r>
       <r>     1.2680     0.1942    10.0187 </r>
       <r>     1.3390     0.5405    10.0570 </r>
       <r>     1.4100     1.1753    10.1405 </r>
       <r>     1.4810     1.9967    10.2822 </r>
       <r>     1.5519     2.6506    10.4703 </r>
       <r>     1.6229     2.7494    10.6655 </r>
       <r>     1.6939     2.2284    10.8236 </r>
       <r>     1.7649     1.4113    10.9238 </r>
       <r>     1.8359     0.6984    10.9734 </r>
       <r>     1.9068     0.2700    10.9926 </r>
       <r>     1.9778     0.0815    10.9983 </r>
       <r>     2.0488     0.0192    10.9997 </r>
       <r>     2.1198     0.0035    11.0000 </r>
       <r>     2.1908     0.0005    11.0000 </r>
       <r>     2.2617     0.0001    11.0000 </r>
       <r>     2.3327     0.0005    11.0000 </r>
       <r>     2.4037     0.0032    11.0003 </r>
       <r>     2.4747     0.0178    11.0015 </r>
       <r>     2.5457     0.0764    11.0069 </r>
       <r>     2.6166     0.2560    11.0251 </r>
       <r>     2.6876     0.6702    11.0727 </r>
       <r>     2.7586     1.3710    11.1700 </r>
       <r>     2.8296     2.1913    11.3255 </r>
       <r>     2.9006     2.7368    11.5198 </r>
       <r>     2.9715     2.6708    11.7094 </r>
       <r>     3.0425     2.0369    11.8540 </r>
       <r>     3.1135     1.2152    11.9402 </r>
       <r>     3.1845     0.5752    11.9810 </r>
       <r>     3.2555     0.2533    11.9990 </r>
       <r>     3.3264     0.2329    12.0156 </r>
       <r>     3.3974     0.5099    12.0517 </r>
       <r>     3.4684     1.1078    12.1304 </r>
       <r>     3.5394     1.9225    12.2668 </r>
       <r>     3.6104     2.6150    12.4524 </r>
       <r>     3.6813     2.7984    12.6511 </r>
       <r>     3.7523     2.4135    12.8224 </r>
       <r>     3.8233     1.8510    12.9538 </r>
       <r>     3.8943     1.6293    13.0694 </r>
       <r>     3.9653     1.9478    13.2077 </r>
       <r>     4.0362     2.5193    13.3865 </r>
       <r>     4.1072     2.8124    13.5861 </r>
       <r>     4.1782     2.5106    13.7643 </r>
       <r>     4.2492     1.7615    13.8894 </r>
       <r>     4.3202     0.9773    13.9587 </r>
       <r>     4.3911     0.4765    13.9925 </r>
       <r>     4.4621     0.3846    14.0199 </r>
       <r>     4.5331     0.7864    14.0757 </r>
       <r>     4.6041     1.7955    14.2031 </r>
       <r>     4.6751     3.3362    14.4399 </r>
       <r>     4.7460     4.8687    14.7855 </r>
       <r>     4.8170     5.5628    15.1803 </r>
       <r>     4.8880     4.9750    15.5335 </r>
       <r>     4.9590     3.4826    15.7807 </r>
       <r>     5.0300     1.9081    15.9161 </r>
       <r>     5.1009     0.8190    15.9742 </r>
       <r>     5.1719     0.2802    15.9941 </r>
       <r>     5.2429     0.1009    16.0013 </r>
       <r>     5.3139     0.1293    16.0105 </r>
       <r>     5.3849     0.3578    16.0359 </r>
       <r>     5.4558     0.8616    16.0970 </r>
       <r>     5.5268     1.6308    16.2128 </r>
       <r>     5.5978     2.4126    16.3840 </r>
       <r>     5.6688     2.7890    16.5820 </r>
       <r>     5.7398     2.5193    16.7608 </r>
       <r>     5.8107     1.7782    16.8870 </r>
       <r>     5.8817     0.9807    16.9566 </r>
       <r>     5.9527     0.4226    16.9866 </r>
       <r>     6.0237     0.1422    16.9967 </r>
       <r>     6.0947     0.0374    16.9994 </r>
       <r>     6.1656     0.0077    16.9999 </r>
       <r>     6.2366     0.0012    17.0000 </r>
       <r>     6.3076     0.0002    17.0000 </r>
       <r>     6.3786     0.0002    17.0000 </r>
       <r>     6.4496     0.0015    17.0001 </r>
       <r>     6.5205     0.0089    17.0007 </r>
       <r>     6.5915     0.0422    17.0037 </r>
       <r>     6.6625     0.1576    17.0149 </r>
       <r>     6.7335     0.4597    17.0476 </r>
       <r>     6.8045     1.0524    17.1223 </r>
       <r>     6.8754     1.9033    17.2574 </r>
       <r>     6.9464     2.7670    17.4538 </r>
       <r>     7.0174     3.3684    17.6928 </r>
       <r>     7.0884     3.7157    17.9566 </r>
       <r>     7.1594     4.0920    18.2470 </r>
       <r>     7.2303     4.6436    18.5766 </r>
       <r>     7.3013     5.1111    18.9394 </r>
       <r>     7.3723     5.0799    19.3000 </r>
       <r>     7.4433     4.4480    19.6157 </r>
       <r>     7.5143     3.5869    19.8703 </r>
       <r>     7.5852     3.0257    20.0851 </r>
       <r>     7.6562     2.9463    20.2942 </r>
       <r>     7.7272     3.0151    20.5082 </r>
       <r>     7.7982     2.7618    20.7042 </r>
       <r>     7.8692     2.0731    20.8514 </r>
       <r>     7.9401     1.2394    20.9394 </r>
       <r>     8.0111     0.6086    20.9826 </r>
       <r>     8.0821     0.3383    21.0066 </r>
       <r>     8.1531     0.4485    21.0384 </r>
       <r>     8.2241     0.9347    21.1048 </r>
       <r>     8.2950     1.7108    21.2262 </r>
       <r>     8.3660     2.4845    21.4025 </r>
       <r>     8.4370     2.8601    21.6055 </r>
       <r>     8.5080     2.7009    21.7973 </r>
       <r>     8.5790     2.3286    21.9625 </r>
       <r>     8.6500     2.2242    22.1204 </r>
       <r>     8.7209     2.5160    22.2990 </r>
       <r>     8.7919     2.8401    22.5006 </r>
       <r>     8.8629     2.7338    22.6946 </r>
       <r>     8.9339     2.1082    22.8443 </r>
       <r>     9.0049     1.2792    22.9351 </r>
       <r>     9.0758     0.6108    22.9784 </r>
       <r>     9.1468     0.2454    22.9958 </r>
       <r>     9.2178     0.1500    23.0065 </r>
       <r>     9.2888     0.2933    23.0273 </r>
       <r>     9.3598     0.7179    23.0783 </r>
       <r>     9.4307     1.4356    23.1802 </r>
       <r>     9.5017     2.2500    23.3399 </r>
       <r>     9.5727     2.7560    23.5355 </r>
       <r>     9.6437     2.6380    23.7227 </r>
       <r>     9.7147     1.9730    23.8628 </r>
       <r>     9.7856     1.1530    23.9446 </r>
       <r>     9.8566     0.5265    23.9820 </r>
       <r>     9.9276     0.1878    23.9953 </r>
       <r>     9.9986     0.0523    23.9990 </r>
       <r>    10.0696     0.0114    23.9998 </r>
       <r>    10.1405     0.0019    24.0000 </r>
       <r>    10.2115     0.0003    24.0000 </r>
       <r>    10.2825     0.0000    24.0000 </r>
       <r>    10.3535     0.0000    24.0000 </r>
       <r>    10.4245     0.0000    24.0000 </r>
       <r>    10.4954     0.0000    24.0000 </r>
       <r>    10.5664     0.0000    24.0000 </r>
       <r>    10.6374     0.0000    24.0000 </r>
       <r>    10.7084     0.0000    24.0000 </r>
       <r>    10.7794     0.0000    24.0000 </r>
       <r>    10.8503     0.0000    24.0000 </r>
       <r>    10.9213     0.0000    24.0000 </r>
       <r>    10.9923     0.0000    24.0000 </r>
       <r>    11.0633     0.0000    24.0000 </r>
       <r>    11.1343     0.0000    24.0000 </r>
       <r>    11.2052     0.0000    24.0000 </r>
       <r>    11.2762     0.0000    24.0000 </r>
       <r>    11.3472     0.0000    24.0000 </r>
       <r>    11.4182     0.0000    24.0000 </r>
       <r>    11.4892     0.0000    24.0000 </r>
       <r>    11.5601     0.0000    24.0000 </r>
      </set>
      <set comment="spin 2">
       <r>    -9.7339     0.0000     0.0000 </r>
       <r>    -9.6629     0.0000     0.0000 </r>
       <r>    -9.5919     0.0000     0.0000 </r>
       <r>    -9.5209     0.0000     0.0000 </r>
       <r>    -9.4500     0.0000     0.0000 </r>
       <r>    -9.3790     0.0000     0.0000 </r>
       <r>    -9.3080     0.0000     0.0000 </r>
       <r>    -9.2370     0.0000     0.0000 </r>
       <r>    -9.1660     0.0000     0.0000 </r>
       <r>    -9.0951     0.0000     0.0000 </r>
       <r>    -9.0241     0.0000     0.0000 </r>
       <r>    -8.9531     0.0000     0.0000 </r>
       <r>    -8.8821     0.0000     0.0000 </r>
       <r>    -8.8111     0.0000     0.0000 </r>
       <r>    -8.7402     0.0000     0.0000 </r>
       <r>    -8.6692     0.0000     0.0000 </r>
       <r>    -8.5982     0.0000     0.0000 </r>
       <r>    -8.5272     0.0000     0.0000 </r>
       <r>    -8.4562     0.0000     0.0000 </r>
       <r>    -8.3853     0.0000     0.0000 </r>
       <r>    -8.3143     0.0000     0.0000 </r>
       <r>    -8.2433     0.0000     0.0000 </r>
       <r>    -8.1723     0.0000     0.0000 </r>
       <r>    -8.1013     0.0000     0.0000 </r>
       <r>    -8.0304     0.0000     0.0000 </r>
       <r>    -7.9594     0.0000     0.0000 </r>
       <r>    -7.8884     0.0000     0.0000 </r>
       <r>    -7.8174     0.0000     0.0000 </r>
       <r>    -7.7464     0.0000     0.0000 </r>
       <r>    -7.6755     0.0000     0.0000 </r>
       <r>    -7.6045     0.0000     0.0000 </r>
       <r>    -7.5335     0.0000     0.0000 </r>
       <r>    -7.4625     0.0000     0.0000 </r>
       <r>    -7.3915     0.0000     0.0000 </r>
       <r>    -7.3206     0.0000     0.0000 </r>
       <r>    -7.2496     0.0000     0.0000 </r>
       <r>    -7.1786     0.0000     0.0000 </r>
       <r>    -7.1076     0.0000     0.0000 </r>
       <r>    -7.0366     0.0000     0.0000 </r>
       <r>    -6.9657     0.0000     0.0000 </r>
       <r>    -6.8947     0.0000     0.0000 </r>
       <r>    -6.8237     0.0000     0.0000 </r>
       <r>    -6.7527     0.0000     0.0000 </r>
       <r>    -6.6817     0.0000     0.0000 </r>
       <r>    -6.6108     0.0000     0.0000 </r>
       <r>    -6.5398     0.0000     0.0000 </r>
       <r>    -6.4688     0.0000     0.0000 </r>
       <r>    -6.3978     0.0000     0.0000 </r>
       <r>    -6.3268     0.0000     0.0000 </r>
       <r>    -6.2559     0.0000     0.0000 </r>
       <r>    -6.1849     0.0000     0.0000 </r>
       <r>    -6.1139     0.0000     0.0000 </r>
       <r>    -6.0429     0.0000     0.0000 </r>
       <r>    -5.9719     0.0000     0.0000 </r>
       <r>    -5.9010     0.0000     0.0000 </r>
       <r>    -5.8300     0.0000     0.0000 </r>
       <r>    -5.7590     0.0000     0.0000 </r>
       <r>    -5.6880     0.0000     0.0000 </r>
       <r>    -5.6170     0.0000     0.0000 </r>
       <r>    -5.5461     0.0000     0.0000 </r>
       <r>    -5.4751     0.0000     0.0000 </r>
       <r>    -5.4041     0.0000     0.0000 </r>
       <r>    -5.3331     0.0000     0.0000 </r>
       <r>    -5.2621     0.0000     0.0000 </r>
       <r>    -5.1912     0.0000     0.0000 </r>
       <r>    -5.1202     0.0000     0.0000 </r>
       <r>    -5.0492     0.0000     0.0000 </r>
       <r>    -4.9782     0.0000     0.0000 </r>
       <r>    -4.9072     0.0000     0.0000 </r>
       <r>    -4.8363     0.0000     0.0000 </r>
       <r>    -4.7653     0.0000     0.0000 </r>
       <r>    -4.6943     0.0000     0.0000 </r>
       <r>    -4.6233     0.0000     0.0000 </r>
       <r>    -4.5523     0.0000     0.0000 </r>
       <r>    -4.4814     0.0000     0.0000 </r>
       <r>    -4.4104     0.0000     0.0000 </r>
       <r>    -4.3394     0.0000     0.0000 </r>
       <r>    -4.2684     0.0000     0.0000 </r>
       <r>    -4.1974     0.0000     0.0000 </r>
       <r>    -4.1265     0.0000     0.0000 </r>
       <r>    -4.0555     0.0000     0.0000 </r>
       <r>    -3.9845     0.0000     0.0000 </r>
       <r>    -3.9135     0.0000     0.0000 </r>
       <r>    -3.8425     0.0000     0.0000 </r>
       <r>    -3.7716     0.0000     0.0000 </r>
       <r>    -3.7006     0.0000     0.0000 </r>
       <r>    -3.6296     0.0000     0.0000 </r>
       <r>    -3.5586     0.0000     0.0000 </r>
       <r>    -3.4876     0.0000     0.0000 </r>
       <r>    -3.4167     0.0000     0.0000 </r>
       <r>    -3.3457     0.0000     0.0000 </r>
       <r>    -3.2747     0.0000     0.0000 </r>
       <r>    -3.2037     0.0000     0.0000 </r>
       <r>    -3.1327     0.0000     0.0000 </r>
       <r>    -3.0618     0.0000     0.0000 </r>
       <r>    -2.9908     0.0000     0.0000 </r>
       <r>    -2.9198     0.0000     0.0000 </r>
       <r>    -2.8488     0.0000     0.0000 </r>
       <r>    -2.7778     0.0000     0.0000 </r>
       <r>    -2.7069     0.0000     0.0000 </r>
       <r>    -2.6359     0.0000     0.0000 </r>
       <r>    -2.5649     0.0000     0.0000 </r>
       <r>    -2.4939     0.0000     0.0000 </r>
       <r>    -2.4229     0.0000     0.0000 </r>
       <r>    -2.3520     0.0000     0.0000 </r>
       <r>    -2.2810     0.0000     0.0000 </r>
       <r>    -2.2100     0.0000     0.0000 </r>
       <r>    -2.1390     0.0000     0.0000 </r>
       <r>    -2.0680     0.0000     0.0000 </r>
       <r>    -1.9971     0.0000     0.0000 </r>
       <r>    -1.9261     0.0000     0.0000 </r>
       <r>    -1.8551     0.0000     0.0000 </r>
       <r>    -1.7841     0.0000     0.0000 </r>
       <r>    -1.7131     0.0000     0.0000 </r>
       <r>    -1.6422     0.0000     0.0000 </r>
       <r>    -1.5712     0.0000     0.0000 </r>
       <r>    -1.5002     0.0000     0.0000 </r>
       <r>    -1.4292     0.0000     0.0000 </r>
       <r>    -1.3582     0.0000     0.0000 </r>
       <r>    -1.2873     0.0000     0.0000 </r>
       <r>    -1.2163     0.0000     0.0000 </r>
       <r>    -1.1453     0.0000     0.0000 </r>
       <r>    -1.0743     0.0000     0.0000 </r>
       <r>    -1.0033     0.0000     0.0000 </r>
       <r>    -0.9324     0.0000     0.0000 </r>
       <r>    -0.8614     0.0000     0.0000 </r>
       <r>    -0.7904     0.0000     0.0000 </r>
       <r>    -0.7194     0.0000     0.0000 </r>
       <r>    -0.6484     0.0000     0.0000 </r>
       <r>    -0.5775     0.0000     0.0000 </r>
       <r>    -0.5065     0.0000     0.0000 </r>
       <r>    -0.4355     0.0000     0.0000 </r>
       <r>    -0.3645     0.0000     0.0000 </r>
       <r>    -0.2935     0.0000     0.0000 </r>
       <r>    -0.2226     0.0000     0.0000 </r>
       <r>    -0.1516     0.0000     0.0000 </r>
       <r>    -0.0806     0.0000     0.0000 </r>
       <r>    -0.0096     0.0000     0.0000 </r>
       <r>     0.0614     0.0000     0.0000 </r>
       <r>     0.1323     0.0000     0.0000 </r>
       <r>     0.2033     0.0000     0.0000 </r>
       <r>     0.2743     0.0000     0.0000 </r>
       <r>     0.3453     0.0000     0.0000 </r>
       <r>     0.4163     0.0000     0.0000 </r>
       <r>     0.4872     0.0000     0.0000 </r>
       <r>     0.5582     0.0000     0.0000 </r>
       <r>     0.6292     0.0000     0.0000 </r>
       <r>     0.7002     0.0000     0.0000 </r>
       <r>     0.7712     0.0000     0.0000 </r>
       <r>     0.8421     0.0000     0.0000 </r>
       <r>     0.9131     0.0000     0.0000 </r>
       <r>     0.9841     0.0000     0.0000 </r>
       <r>     1.0551     0.0000     0.0000 </r>
       <r>     1.1261     0.0000     0.0000 </r>
       <r>     1.1970     0.0000     0.0000 </r>
       <r>     1.2680     0.0000     0.0000 </r>
       <r>     1.3390     0.0000     0.0000 </r>
       <r>     1.4100     0.0000     0.0000 </r>
       <r>     1.4810     0.0000     0.0000 </r>
       <r>     1.5519     0.0000     0.0000 </r>
       <r>     1.6229     0.0000     0.0000 </r>
       <r>     1.6939     0.0000     0.0000 </r>
       <r>     1.7649     0.0000     0.0000 </r>
       <r>     1.8359     0.0000     0.0000 </r>
       <r>     1.9068     0.0000     0.0000 </r>
       <r>     1.9778     0.0000     0.0000 </r>
       <r>     2.0488     0.0000     0.0000 </r>
       <r>     2.1198     0.0000     0.0000 </r>
       <r>     2.1908     0.0000     0.0000 </r>
       <r>     2.2617     0.0000     0.0000 </r>
       <r>     2.3327     0.0000     0.0000 </r>
       <r>     2.4037     0.0000     0.0000 </r>
       <r>     2.4747     0.0000     0.0000 </r>
       <r>     2.5457     0.0000     0.0000 </r>
       <r>     2.6166     0.0000     0.0000 </r>
       <r>     2.6876     0.0000     0.0000 </r>
       <r>     2.7586     0.0000     0.0000 </r>
       <r>     2.8296     0.0000     0.0000 </r>
       <r>     2.9006     0.0000     0.0000 </r>
       <r>     2.9715     0.0000     0.0000 </r>
       <r>     3.0425     0.0000     0.0000 </r>
       <r>     3.1135     0.0000     0.0000 </r>
       <r>     3.1845     0.0000     0.0000 </r>
       <r>     3.2555     0.0000     0.0000 </r>
       <r>     3.3264     0.0000     0.0000 </r>
       <r>     3.3974     0.0000     0.0000 </r>
       <r>     3.4684     0.0000     0.0000 </r>
       <r>     3.5394     0.0000     0.0000 </r>
       <r>     3.6104     0.0000     0.0000 </r>
       <r>     3.6813     0.0000     0.0000 </r>
       <r>     3.7523     0.0000     0.0000 </r>
       <r>     3.8233     0.0000     0.0000 </r>
       <r>     3.8943     0.0000     0.0000 </r>
       <r>     3.9653     0.0000     0.0000 </r>
       <r>     4.0362     0.0000     0.0000 </r>
       <r>     4.1072     0.0000     0.0000 </r>
       <r>     4.1782     0.0000     0.0000 </r>
       <r>     4.2492     0.0000     0.0000 </r>
       <r>     4.3202     0.0000     0.0000 </r>
       <r>     4.3911     0.0000     0.0000 </r>
       <r>     4.4621     0.0000     0.0000 </r>
       <r>     4.5331     0.0000     0.0000 </r>
       <r>     4.6041     0.0000     0.0000 </r>
       <r>     4.6751     0.0000     0.0000 </r>
       <r>     4.7460     0.0000     0.0000 </r>
       <r>     4.8170     0.0000     0.0000 </r>
       <r>     4.8880     0.0000     0.0000 </r>
       <r>     4.9590     0.0000     0.0000 </r>
       <r>     5.0300     0.0000     0.0000 </r>
       <r>     5.1009     0.0000     0.0000 </r>
       <r>     5.1719     0.0000     0.0000 </r>
       <r>     5.2429     0.0000     0.0000 </r>
       <r>     5.3139     0.0000     0.0000 </r>
       <r>     5.3849     0.0000     0.0000 </r>
       <r>     5.4558     0.0000     0.0000 </r>
       <r>     5.5268     0.0000     0.0000 </r>
       <r>     5.5978     0.0000     0.0000 </r>
       <r>     5.6688     0.0000     0.0000 </r>
       <r>     5.7398     0.0000     0.0000 </r>
       <r>     5.8107     0.0000     0.0000 </r>
       <r>     5.8817     0.0000     0.0000 </r>
       <r>     5.9527     0.0000     0.0000 </r>
       <r>     6.0237     0.0000     0.0000 </r>
       <r>     6.0947     0.0000     0.0000 </r>
       <r>     6.1656     0.0000     0.0000 </r>
       <r>     6.2366     0.0000     0.0000 </r>
       <r>     6.3076     0.0000     0.0000 </r>
       <r>     6.3786     0.0000     0.0000 </r>
       <r>     6.4496     0.0000     0.0000 </r>
       <r>     6.5205     0.0000     0.0000 </r>
       <r>     6.5915     0.0000     0.0000 </r>
       <r>     6.6625     0.0000     0.0000 </r>
       <r>     6.7335     0.0000     0.0000 </r>
       <r>     6.8045     0.0000     0.0000 </r>
       <r>     6.8754     0.0000     0.0000 </r>
       <r>     6.9464     0.0000     0.0000 </r>
       <r>     7.0174     0.0000     0.0000 </r>
       <r>     7.0884     0.0000     0.0000 </r>
       <r>     7.1594     0.0000     0.0000 </r>
       <r>     7.2303     0.0000     0.0000 </r>
       <r>     7.3013     0.0000     0.0000 </r>
       <r>     7.3723     0.0000     0.0000 </r>
       <r>     7.4433     0.0000     0.0000 </r>
       <r>     7.5143     0.0000     0.0000 </r>
       <r>     7.5852     0.0000     0.0000 </r>
       <r>     7.6562     0.0000     0.0000 </r>
       <r>     7.7272     0.0000     0.0000 </r>
       <r>     7.7982     0.0000     0.0000 </r>
       <r>     7.8692     0.0000     0.0000 </r>
       <r>     7.9401     0.0000     0.0000 </r>
       <r>     8.0111     0.0000     0.0000 </r>
       <r>     8.0821     0.0000     0.0000 </r>
       <r>     8.1531     0.0000     0.0000 </r>
       <r>     8.2241     0.0000     0.0000 </r>
       <r>     8.2950     0.0000     0.0000 </r>
       <r>     8.3660     0.0000     0.0000 </r>
       <r>     8.4370     0.0000     0.0000 </r>
       <r>     8.5080     0.0000     0.0000 </r>
       <r>     8.5790     0.0000     0.0000 </r>
       <r>     8.6500     0.0000     0.0000 </r>
       <r>     8.7209     0.0000     0.0000 </r>
       <r>     8.7919     0.0000     0.0000 </r>
       <r>     8.8629     0.0000     0.0000 </r>
       <r>     8.9339     0.0000     0.0000 </r>
       <r>     9.0049     0.0000     0.0000 </r>
       <r>     9.0758     0.0000     0.0000 </r>
       <r>     9.1468     0.0000     0.0000 </r>
       <r>     9.2178     0.0000     0.0000 </r>
       <r>     9.2888     0.0000     0.0000 </r>
       <r>     9.3598     0.0000     0.0000 </r>
       <r>     9.4307     0.0000     0.0000 </r>
       <r>     9.5017     0.0000     0.0000 </r>
       <r>     9.5727     0.0000     0.0000 </r>
       <r>     9.6437     0.0000     0.0000 </r>
       <r>     9.7147     0.0000     0.0000 </r>
       <r>     9.7856     0.0000     0.0000 </r>
       <r>     9.8566     0.0000     0.0000 </r>
       <r>     9.9276     0.0000     0.0000 </r>
       <r>     9.9986     0.0000     0.0000 </r>
       <r>    10.0696     0.0000     0.0000 </r>
       <r>    10.1405     0.0000     0.0000 </r>
       <r>    10.2115     0.0000     0.0000 </r>
       <r>    10.2825     0.0000     0.0000 </r>
       <r>    10.3535     0.0000     0.0000 </r>
       <r>    10.4245     0.0000     0.0000 </r>
       <r>    10.4954     0.0000     0.0000 </r>
       <r>    10.5664     0.0000     0.0000 </r>
       <r>    10.6374     0.0000     0.0000 </r>
       <r>    10.7084     0.0000     0.0000 </r>
       <r>    10.7794     0.0000     0.0000 </r>
       <r>    10.8503     0.0000     0.0000 </r>
       <r>    10.9213     0.0000     0.0000 </r>
       <r>    10.9923     0.0000     0.0000 </r>
       <r>    11.0633     0.0000     0.0000 </r>
       <r>    11.1343     0.0000     0.0000 </r>
       <r>    11.2052     0.0000     0.0000 </r>
       <r>    11.2762     0.0000     0.0000 </r>
       <r>    11.3472     0.0000     0.0000 </r>
       <r>    11.4182     0.0000     0.0000 </r>
       <r>    11.4892     0.0000     0.0000 </r>
       <r>    11.5601     0.0000     0.0000 </r>
      </set>
      <set comment="spin 3">
       <r>    -9.7339     0.0000     0.0000 </r>
       <r>    -9.6629     0.0000     0.0000 </r>
       <r>    -9.5919     0.0000     0.0000 </r>
       <r>    -9.5209     0.0000     0.0000 </r>
       <r>    -9.4500     0.0000     0.0000 </r>
       <r>    -9.3790     0.0000     0.0000 </r>
       <r>    -9.3080     0.0000     0.0000 </r>
       <r>    -9.2370     0.0000     0.0000 </r>
       <r>    -9.1660     0.0000     0.0000 </r>
       <r>    -9.0951     0.0000     0.0000 </r>
       <r>    -9.0241     0.0000     0.0000 </r>
       <r>    -8.9531     0.0000     0.0000 </r>
       <r>    -8.8821     0.0000     0.0000 </r>
       <r>    -8.8111     0.0000     0.0000 </r>
       <r>    -8.7402     0.0000     0.0000 </r>
       <r>    -8.6692     0.0000     0.0000 </r>
       <r>    -8.5982     0.0000     0.0000 </r>
       <r>    -8.5272     0.0000     0.0000 </r>
       <r>    -8.4562     0.0000     0.0000 </r>
       <r>    -8.3853     0.0000     0.0000 </r>
       <r>    -8.3143     0.0000     0.0000 </r>
       <r>    -8.2433     0.0000     0.0000 </r>
       <r>    -8.1723     0.0000     0.0000 </r>
       <r>    -8.1013     0.0000     0.0000 </r>
       <r>    -8.0304     0.0000     0.0000 </r>
       <r>    -7.9594     0.0000     0.0000 </r>
       <r>    -7.8884     0.0000     0.0000 </r>
       <r>    -7.8174     0.0000     0.0000 </r>
       <r>    -7.7464     0.0000     0.0000 </r>
       <r>    -7.6755     0.0000     0.0000 </r>
       <r>    -7.6045     0.0000     0.0000 </r>
       <r>    -7.5335     0.0000     0.0000 </r>
       <r>    -7.4625     0.0000     0.0000 </r>
       <r>    -7.3915     0.0000     0.0000 </r>
       <r>    -7.3206     0.0000     0.0000 </r>
       <r>    -7.2496     0.0000     0.0000 </r>
       <r>    -7.1786     0.0000     0.0000 </r>
       <r>    -7.1076     0.0000     0.0000 </r>
       <r>    -7.0366     0.0000     0.0000 </r>
       <r>    -6.9657     0.0000     0.0000 </r>
       <r>    -6.8947     0.0000     0.0000 </r>
       <r>    -6.8237     0.0000     0.0000 </r>
       <r>    -6.7527     0.0000     0.0000 </r>
       <r>    -6.6817     0.0000     0.0000 </r>
       <r>    -6.6108     0.0000     0.0000 </r>
       <r>    -6.5398     0.0000     0.0000 </r>
       <r>    -6.4688     0.0000     0.0000 </r>
       <r>    -6.3978     0.0000     0.0000 </r>
       <r>    -6.3268     0.0000     0.0000 </r>
       <r>    -6.2559     0.0000     0.0000 </r>
       <r>    -6.1849     0.0000     0.0000 </r>
       <r>    -6.1139     0.0000     0.0000 </r>
       <r>    -6.0429     0.0000     0.0000 </r>
       <r>    -5.9719     0.0000     0.0000 </r>
       <r>    -5.9010     0.0000     0.0000 </r>
       <r>    -5.8300     0.0000     0.0000 </r>
       <r>    -5.7590     0.0000     0.0000 </r>
       <r>    -5.6880     0.0000     0.0000 </r>
       <r>    -5.6170     0.0000     0.0000 </r>
       <r>    -5.5461     0.0000     0.0000 </r>
       <r>    -5.4751     0.0000     0.0000 </r>
       <r>    -5.4041     0.0000     0.0000 </r>
       <r>    -5.3331     0.0000     0.0000 </r>
       <r>    -5.2621     0.0000     0.0000 </r>
       <r>    -5.1912     0.0000     0.0000 </r>
       <r>    -5.1202     0.0000     0.0000 </r>
       <r>    -5.0492     0.0000     0.0000 </r>
       <r>    -4.9782     0.0000     0.0000 </r>
       <r>    -4.9072     0.0000     0.0000 </r>
       <r>    -4.8363     0.0000     0.0000 </r>
       <r>    -4.7653     0.0000     0.0000 </r>
       <r>    -4.6943     0.0000     0.0000 </r>
       <r>    -4.6233     0.0000     0.0000 </r>
       <r>    -4.5523     0.0000     0.0000 </r>
       <r>    -4.4814     0.0000     0.0000 </r>
       <r>    -4.4104     0.0000     0.0000 </r>
       <r>    -4.3394     0.0000     0.0000 </r>
       <r>    -4.2684     0.0000     0.0000 </r>
       <r>    -4.1974     0.0000     0.0000 </r>
       <r>    -4.1265     0.0000     0.0000 </r>
       <r>    -4.0555     0.0000     0.0000 </r>
       <r>    -3.9845     0.0000     0.0000 </r>
       <r>    -3.9135     0.0000     0.0000 </r>
       <r>    -3.8425     0.0000     0.0000 </r>
       <r>    -3.7716     0.0000     0.0000 </r>
       <r>    -3.7006     0.0000     0.0000 </r>
       <r>    -3.6296     0.0000     0.0000 </r>
       <r>    -3.5586     0.0000     0.0000 </r>
       <r>    -3.4876     0.0000     0.0000 </r>
       <r>    -3.4167     0.0000     0.0000 </r>
       <r>    -3.3457     0.0000     0.0000 </r>
       <r>    -3.2747     0.0000     0.0000 </r>
       <r>    -3.2037     0.0000     0.0000 </r>
       <r>    -3.1327     0.0000     0.0000 </r>
       <r>    -3.0618     0.0000     0.0000 </r>
       <r>    -2.9908     0.0000     0.0000 </r>
       <r>    -2.9198     0.0000     0.0000 </r>
       <r>    -2.8488     0.0000     0.0000 </r>
       <r>    -2.7778     0.0000     0.0000 </r>
       <r>    -2.7069     0.0000     0.0000 </r>
       <r>    -2.6359     0.0000     0.0000 </r>
       <r>    -2.5649     0.0000     0.0000 </r>
       <r>    -2.4939     0.0000     0.0000 </r>
       <r>    -2.4229     0.0000     0.0000 </r>
       <r>    -2.3520     0.0000     0.0000 </r>
       <r>    -2.2810     0.0000     0.0000 </r>
       <r>    -2.2100     0.0000     0.0000 </r>
       <r>    -2.1390     0.0000     0.0000 </r>
       <r>    -2.0680     0.0000     0.0000 </r>
       <r>    -1.9971     0.0000     0.0000 </r>
       <r>    -1.9261     0.0000     0.0000 </r>
       <r>    -1.8551     0.0000     0.0000 </r>
       <r>    -1.7841     0.0000     0.0000 </r>
       <r>    -1.7131     0.0000     0.0000 </r>
       <r>    -1.6422     0.0000     0.0000 </r>
       <r>    -1.5712     0.0000     0.0000 </r>
       <r>    -1.5002     0.0000     0.0000 </r>
       <r>    -1.4292     0.0000     0.0000 </r>
       <r>    -1.3582     0.0000     0.0000 </r>
       <r>    -1.2873     0.0000     0.0000 </r>
       <r>    -1.2163     0.0000     0.0000 </r>
       <r>    -1.1453     0.0000     0.0000 </r>
       <r>    -1.0743     0.0000     0.0000 </r>
       <r>    -1.0033     0.0000     0.0000 </r>
       <r>    -0.9324     0.0000     0.0000 </r>
       <r>    -0.8614     0.0000     0.0000 </r>
       <r>    -0.7904     0.0000     0.0000 </r>
       <r>    -0.7194     0.0000     0.0000 </r>
       <r>    -0.6484     0.0000     0.0000 </r>
       <r>    -0.5775     0.0000     0.0000 </r>
       <r>    -0.5065     0.0000     0.0000 </r>
       <r>    -0.4355     0.0000     0.0000 </r>
       <r>    -0.3645     0.0000     0.0000 </r>
       <r>    -0.2935     0.0000     0.0000 </r>
       <r>    -0.2226     0.0000     0.0000 </r>
       <r>    -0.1516     0.0000     0.0000 </r>
       <r>    -0.0806     0.0000     0.0000 </r>
       <r>    -0.0096     0.0000     0.0000 </r>
       <r>     0.0614     0.0000     0.0000 </r>
       <r>     0.1323     0.0000     0.0000 </r>
       <r>     0.2033     0.0000     0.0000 </r>
       <r>     0.2743     0.0000     0.0000 </r>
       <r>     0.3453     0.0000     0.0000 </r>
       <r>     0.4163     0.0000     0.0000 </r>
       <r>     0.4872     0.0000     0.0000 </r>
       <r>     0.5582     0.0000     0.0000 </r>
       <r>     0.6292     0.0000     0.0000 </r>
       <r>     0.7002     0.0000     0.0000 </r>
       <r>     0.7712     0.0000     0.0000 </r>
       <r>     0.8421     0.0000     0.0000 </r>
       <r>     0.9131     0.0000     0.0000 </r>
       <r>     0.9841     0.0000     0.0000 </r>
       <r>     1.0551     0.0000     0.0000 </r>
       <r>     1.1261     0.0000     0.0000 </r>
       <r>     1.1970     0.0000     0.0000 </r>
       <r>     1.2680     0.0000     0.0000 </r>
       <r>     1.3390     0.0000     0.0000 </r>
       <r>     1.4100     0.0000     0.0000 </r>
       <r>     1.4810     0.0000     0.0000 </r>
       <r>     1.5519     0.0000     0.0000 </r>
       <r>     1.6229     0.0000     0.0000 </r>
       <r>     1.6939     0.0000     0.0000 </r>
       <r>     1.7649     0.0000     0.0000 </r>
       <r>     1.8359     0.0000     0.0000 </r>
       <r>     1.9068     0.0000     0.0000 </r>
       <r>     1.9778     0.0000     0.0000 </r>
       <r>     2.0488     0.0000     0.0000 </r>
       <r>     2.1198     0.0000     0.0000 </r>
       <r>     2.1908     0.0000     0.0000 </r>
       <r>     2.2617     0.0000     0.0000 </r>
       <r>     2.3327     0.0000     0.0000 </r>
       <r>     2.4037     0.0000     0.0000 </r>
       <r>     2.4747     0.0000     0.0000 </r>
       <r>     2.5457     0.0000     0.0000 </r>
       <r>     2.6166     0.0000     0.0000 </r>
       <r>     2.6876     0.0000     0.0000 </r>
       <r>     2.7586     0.0000     0.0000 </r>
       <r>     2.8296     0.0000     0.0000 </r>
       <r>     2.9006     0.0000     0.0000 </r>
       <r>     2.9715     0.0000     0.0000 </r>
       <r>     3.0425     0.0000     0.0000 </r>
       <r>     3.1135     0.0000     0.0000 </r>
       <r>     3.1845     0.0000     0.0000 </r>
       <r>     3.2555     0.0000     0.0000 </r>
       <r>     3.3264     0.0000     0.0000 </r>
       <r>     3.3974     0.0000     0.0000 </r>
       <r>     3.4684     0.0000     0.0000 </r>
       <r>     3.5394     0.0000     0.0000 </r>
       <r>     3.6104     0.0000     0.0000 </r>
       <r>     3.6813     0.0000     0.0000 </r>
       <r>     3.7523     0.0000     0.0000 </r>
       <r>     3.8233     0.0000     0.0000 </r>
       <r>     3.8943     0.0000     0.0000 </r>
       <r>     3.9653     0.0000     0.0000 </r>
       <r>     4.0362     0.0000     0.0000 </r>
       <r>     4.1072     0.0000     0.0000 </r>
       <r>     4.1782     0.0000     0.0000 </r>
       <r>     4.2492     0.0000     0.0000 </r>
       <r>     4.3202     0.0000     0.0000 </r>
       <r>     4.3911     0.0000     0.0000 </r>
       <r>     4.4621     0.0000     0.0000 </r>
       <r>     4.5331     0.0000     0.0000 </r>
       <r>     4.6041     0.0000     0.0000 </r>
       <r>     4.6751     0.0000     0.0000 </r>
       <r>     4.7460     0.0000     0.0000 </r>
       <r>     4.8170     0.0000     0.0000 </r>
       <r>     4.8880     0.0000     0.0000 </r>
       <r>     4.9590     0.0000     0.0000 </r>
       <r>     5.0300     0.0000     0.0000 </r>
       <r>     5.1009     0.0000     0.0000 </r>
       <r>     5.1719     0.0000     0.0000 </r>
       <r>     5.2429     0.0000     0.0000 </r>
       <r>     5.3139     0.0000     0.0000 </r>
       <r>     5.3849     0.0000     0.0000 </r>
       <r>     5.4558     0.0000     0.0000 </r>
       <r>     5.5268     0.0000     0.0000 </r>
       <r>     5.5978     0.0000     0.0000 </r>
       <r>     5.6688     0.0000     0.0000 </r>
       <r>     5.7398     0.0000     0.0000 </r>
       <r>     5.8107     0.0000     0.0000 </r>
       <r>     5.8817     0.0000     0.0000 </r>
       <r>     5.9527     0.0000     0.0000 </r>
       <r>     6.0237     0.0000     0.0000 </r>
       <r>     6.0947     0.0000     0.0000 </r>
       <r>     6.1656     0.0000     0.0000 </r>
       <r>     6.2366     0.0000     0.0000 </r>
       <r>     6.3076     0.0000     0.0000 </r>
       <r>     6.3786     0.0000     0.0000 </r>
       <r>     6.4496     0.0000     0.0000 </r>
       <r>     6.5205     0.0000     0.0000 </r>
       <r>     6.5915     0.0000     0.0000 </r>
       <r>     6.6625     0.0000     0.0000 </r>
       <r>     6.7335     0.0000     0.0000 </r>
       <r>     6.8045     0.0000     0.0000 </r>
       <r>     6.8754     0.0000     0.0000 </r>
       <r>     6.9464     0.0000     0.0000 </r>
       <r>     7.0174     0.0000     0.0000 </r>
       <r>     7.0884     0.0000     0.0000 </r>
       <r>     7.1594     0.0000     0.0000 </r>
       <r>     7.2303     0.0000     0.0000 </r>
       <r>     7.3013     0.0000     0.0000 </r>
       <r>     7.3723     0.0000     0.0000 </r>
       <r>     7.4433     0.0000     0.0000 </r>
       <r>     7.5143     0.0000     0.0000 </r>
       <r>     7.5852     0.0000     0.0000 </r>
       <r>     7.6562     0.0000     0.0000 </r>
       <r>     7.7272     0.0000     0.0000 </r>
       <r>     7.7982     0.0000     0.0000 </r>
       <r>     7.8692     0.0000     0.0000 </r>
       <r>     7.9401     0.0000     0.0000 </r>
       <r>     8.0111     0.0000     0.0000 </r>
       <r>     8.0821     0.0000     0.0000 </r>
       <r>     8.1531     0.0000     0.0000 </r>
       <r>     8.2241     0.0000     0.0000 </r>
       <r>     8.2950     0.0000     0.0000 </r>
       <r>     8.3660     0.0000     0.0000 </r>
       <r>     8.4370     0.0000     0.0000 </r>
       <r>     8.5080     0.0000     0.0000 </r>
       <r>     8.5790     0.0000     0.0000 </r>
       <r>     8.6500     0.0000     0.0000 </r>
       <r>     8.7209     0.0000     0.0000 </r>
       <r>     8.7919     0.0000     0.0000 </r>
       <r>     8.8629     0.0000     0.0000 </r>
       <r>     8.9339     0.0000     0.0000 </r>
       <r>     9.0049     0.0000     0.0000 </r>
       <r>     9.0758     0.0000     0.0000 </r>
       <r>     9.1468     0.0000     0.0000 </r>
       <r>     9.2178     0.0000     0.0000 </r>
       <r>     9.2888     0.0000     0.0000 </r>
       <r>     9.3598     0.0000     0.0000 </r>
       <r>     9.4307     0.0000     0.0000 </r>
       <r>     9.5017     0.0000     0.0000 </r>
       <r>     9.5727     0.0000     0.0000 </r>
       <r>     9.6437     0.0000     0.0000 </r>
       <r>     9.7147     0.0000     0.0000 </r>
       <r>     9.7856     0.0000     0.0000 </r>
       <r>     9.8566     0.0000     0.0000 </r>
       <r>     9.9276     0.0000     0.0000 </r>
       <r>     9.9986     0.0000     0.0000 </r>
       <r>    10.0696     0.0000     0.0000 </r>
       <r>    10.1405     0.0000     0.0000 </r>
       <r>    10.2115     0.0000     0.0000 </r>
       <r>    10.2825     0.0000     0.0000 </r>
       <r>    10.3535     0.0000     0.0000 </r>
       <r>    10.4245     0.0000     0.0000 </r>
       <r>    10.4954     0.0000     0.0000 </r>
       <r>    10.5664     0.0000     0.0000 </r>
       <r>    10.6374     0.0000     0.0000 </r>
       <r>    10.7084     0.0000     0.0000 </r>
       <r>    10.7794     0.0000     0.0000 </r>
       <r>    10.8503     0.0000     0.0000 </r>
       <r>    10.9213     0.0000     0.0000 </r>
       <r>    10.9923     0.0000     0.0000 </r>
       <r>    11.0633     0.0000     0.0000 </r>
       <r>    11.1343     0.0000     0.0000 </r>
       <r>    11.2052     0.0000     0.0000 </r>
       <r>    11.2762     0.0000     0.0000 </r>
       <r>    11.3472     0.0000     0.0000 </r>
       <r>    11.4182     0.0000     0.0000 </r>
       <r>    11.4892     0.0000     0.0000 </r>
       <r>    11.5601     0.0000     0.0000 </r>
      </set>
      <set comment="spin 4">
       <r>    -9.7339     0.0000     0.0000 </r>
       <r>    -9.6629     0.0000     0.0000 </r>
       <r>    -9.5919     0.0000     0.0000 </r>
       <r>    -9.5209     0.0000     0.0000 </r>
       <r>    -9.4500     0.0000     0.0000 </r>
       <r>    -9.3790     0.0000     0.0000 </r>
       <r>    -9.3080     0.0000     0.0000 </r>
       <r>    -9.2370     0.0000     0.0000 </r>
       <r>    -9.1660     0.0000     0.0000 </r>
       <r>    -9.0951     0.0000     0.0000 </r>
       <r>    -9.0241     0.0000     0.0000 </r>
       <r>    -8.9531     0.0000     0.0000 </r>
       <r>    -8.8821     0.0000     0.0000 </r>
       <r>    -8.8111     0.0000     0.0000 </r>
       <r>    -8.7402     0.0000     0.0000 </r>
       <r>    -8.6692     0.0000     0.0000 </r>
       <r>    -8.5982     0.0000     0.0000 </r>
       <r>    -8.5272     0.0000     0.0000 </r>
       <r>    -8.4562     0.0000     0.0000 </r>
       <r>    -8.3853     0.0000     0.0000 </r>
       <r>    -8.3143     0.0000     0.0000 </r>
       <r>    -8.2433     0.0000     0.0000 </r>
       <r>    -8.1723     0.0000     0.0000 </r>
       <r>    -8.1013     0.0000     0.0000 </r>
       <r>    -8.0304     0.0000     0.0000 </r>
       <r>    -7.9594     0.0000     0.0000 </r>
       <r>    -7.8884     0.0000     0.0000 </r>
       <r>    -7.8174     0.0000     0.0000 </r>
       <r>    -7.7464     0.0000     0.0000 </r>
       <r>    -7.6755     0.0000     0.0000 </r>
       <r>    -7.6045     0.0000     0.0000 </r>
       <r>    -7.5335     0.0000     0.0000 </r>
       <r>    -7.4625     0.0000     0.0000 </r>
       <r>    -7.3915     0.0000     0.0000 </r>
       <r>    -7.3206     0.0000     0.0000 </r>
       <r>    -7.2496     0.0000     0.0000 </r>
       <r>    -7.1786     0.0000     0.0000 </r>
       <r>    -7.1076     0.0000     0.0000 </r>
       <r>    -7.0366     0.0000     0.0000 </r>
       <r>    -6.9657     0.0000     0.0000 </r>
       <r>    -6.8947     0.0000     0.0000 </r>
       <r>    -6.8237     0.0000     0.0000 </r>
       <r>    -6.7527     0.0000     0.0000 </r>
       <r>    -6.6817     0.0000     0.0000 </r>
       <r>    -6.6108     0.0000     0.0000 </r>
       <r>    -6.5398     0.0000     0.0000 </r>
       <r>    -6.4688     0.0000     0.0000 </r>
       <r>    -6.3978     0.0000     0.0000 </r>
       <r>    -6.3268     0.0000     0.0000 </r>
       <r>    -6.2559     0.0000     0.0000 </r>
       <r>    -6.1849     0.0000     0.0000 </r>
       <r>    -6.1139     0.0000     0.0000 </r>
       <r>    -6.0429     0.0000     0.0000 </r>
       <r>    -5.9719     0.0000     0.0000 </r>
       <r>    -5.9010     0.0000     0.0000 </r>
       <r>    -5.8300     0.0000     0.0000 </r>
       <r>    -5.7590     0.0000     0.0000 </r>
       <r>    -5.6880     0.0000     0.0000 </r>
       <r>    -5.6170     0.0000     0.0000 </r>
       <r>    -5.5461     0.0000     0.0000 </r>
       <r>    -5.4751     0.0000     0.0000 </r>
       <r>    -5.4041     0.0000     0.0000 </r>
       <r>    -5.3331     0.0000     0.0000 </r>
       <r>    -5.2621     0.0000     0.0000 </r>
       <r>    -5.1912     0.0000     0.0000 </r>
       <r>    -5.1202     0.0000     0.0000 </r>
       <r>    -5.0492     0.0000     0.0000 </r>
       <r>    -4.9782     0.0000     0.0000 </r>
       <r>    -4.9072     0.0000     0.0000 </r>
       <r>    -4.8363     0.0000     0.0000 </r>
       <r>    -4.7653     0.0000     0.0000 </r>
       <r>    -4.6943     0.0000     0.0000 </r>
       <r>    -4.6233     0.0000     0.0000 </r>
       <r>    -4.5523     0.0000     0.0000 </r>
       <r>    -4.4814     0.0000     0.0000 </r>
       <r>    -4.4104     0.0000     0.0000 </r>
       <r>    -4.3394     0.0000     0.0000 </r>
       <r>    -4.2684     0.0000     0.0000 </r>
       <r>    -4.1974     0.0000     0.0000 </r>
       <r>    -4.1265     0.0000     0.0000 </r>
       <r>    -4.0555     0.0000     0.0000 </r>
       <r>    -3.9845     0.0000     0.0000 </r>
       <r>    -3.9135     0.0000     0.0000 </r>
       <r>    -3.8425     0.0000     0.0000 </r>
       <r>    -3.7716     0.0000     0.0000 </r>
       <r>    -3.7006     0.0000     0.0000 </r>
       <r>    -3.6296     0.0000     0.0000 </r>
       <r>    -3.5586     0.0000     0.0000 </r>
       <r>    -3.4876     0.0000     0.0000 </r>
       <r>    -3.4167     0.0000     0.0000 </r>
       <r>    -3.3457     0.0000     0.0000 </r>
       <r>    -3.2747     0.0000     0.0000 </r>
       <r>    -3.2037     0.0000     0.0000 </r>
       <r>    -3.1327     0.0000     0.0000 </r>
       <r>    -3.0618     0.0000     0.0000 </r>
       <r>    -2.9908     0.0000     0.0000 </r>
       <r>    -2.9198     0.0000     0.0000 </r>
       <r>    -2.8488     0.0000     0.0000 </r>
       <r>    -2.7778     0.0000     0.0000 </r>
       <r>    -2.7069     0.0000     0.0000 </r>
       <r>    -2.6359     0.0000     0.0000 </r>
       <r>    -2.5649     0.0000     0.0000 </r>
       <r>    -2.4939     0.0000     0.0000 </r>
       <r>    -2.4229     0.0000     0.0000 </r>
       <r>    -2.3520     0.0000     0.0000 </r>
       <r>    -2.2810     0.0000     0.0000 </r>
       <r>    -2.2100     0.0000     0.0000 </r>
       <r>    -2.1390     0.0000     0.0000 </r>
       <r>    -2.0680     0.0000     0.0000 </r>
       <r>    -1.9971     0.0000     0.0000 </r>
       <r>    -1.9261     0.0000     0.0000 </r>
       <r>    -1.8551     0.0000     0.0000 </r>
       <r>    -1.7841     0.0000     0.0000 </r>
       <r>    -1.7131     0.0000     0.0000 </r>
       <r>    -1.6422     0.0000     0.0000 </r>
       <r>    -1.5712     0.0000     0.0000 </r>
       <r>    -1.5002     0.0000     0.0000 </r>
       <r>    -1.4292     0.0000     0.0000 </r>
       <r>    -1.3582     0.0000     0.0000 </r>
       <r>    -1.2873     0.0000     0.0000 </r>
       <r>    -1.2163     0.0000     0.0000 </r>
       <r>    -1.1453     0.0000     0.0000 </r>
       <r>    -1.0743     0.0000     0.0000 </r>
       <r>    -1.0033     0.0000     0.0000 </r>
       <r>    -0.9324     0.0000     0.0000 </r>
       <r>    -0.8614     0.0000     0.0000 </r>
       <r>    -0.7904     0.0000     0.0000 </r>
       <r>    -0.7194     0.0000     0.0000 </r>
       <r>    -0.6484     0.0000     0.0000 </r>
       <r>    -0.5775     0.0000     0.0000 </r>
       <r>    -0.5065     0.0000     0.0000 </r>
       <r>    -0.4355     0.0000     0.0000 </r>
       <r>    -0.3645     0.0000     0.0000 </r>
       <r>    -0.2935     0.0000     0.0000 </r>
       <r>    -0.2226     0.0000     0.0000 </r>
       <r>    -0.1516     0.0000     0.0000 </r>
       <r>    -0.0806     0.0000     0.0000 </r>
       <r>    -0.0096     0.0000     0.0000 </r>
       <r>     0.0614     0.0000     0.0000 </r>
       <r>     0.1323     0.0000     0.0000 </r>
       <r>     0.2033     0.0000     0.0000 </r>
       <r>     0.2743     0.0000     0.0000 </r>
       <r>     0.3453     0.0000     0.0000 </r>
       <r>     0.4163     0.0000     0.0000 </r>
       <r>     0.4872     0.0000     0.0000 </r>
       <r>     0.5582     0.0000     0.0000 </r>
       <r>     0.6292     0.0000     0.0000 </r>
       <r>     0.7002     0.0000     0.0000 </r>
       <r>     0.7712     0.0000     0.0000 </r>
       <r>     0.8421     0.0000     0.0000 </r>
       <r>     0.9131     0.0000     0.0000 </r>
       <r>     0.9841     0.0000     0.0000 </r>
       <r>     1.0551     0.0000     0.0000 </r>
       <r>     1.1261     0.0000     0.0000 </r>
       <r>     1.1970     0.0000     0.0000 </r>
       <r>     1.2680     0.0000     0.0000 </r>
       <r>     1.3390     0.0000     0.0000 </r>
       <r>     1.4100     0.0000     0.0000 </r>
       <r>     1.4810     0.0000     0.0000 </r>
       <r>     1.5519     0.0000     0.0000 </r>
       <r>     1.6229     0.0000     0.0000 </r>
       <r>     1.6939     0.0000     0.0000 </r>
       <r>     1.7649     0.0000     0.0000 </r>
       <r>     1.8359     0.0000     0.0000 </r>
       <r>     1.9068     0.0000     0.0000 </r>
       <r>     1.9778     0.0000     0.0000 </r>
       <r>     2.0488     0.0000     0.0000 </r>
       <r>     2.1198     0.0000     0.0000 </r>
       <r>     2.1908     0.0000     0.0000 </r>
       <r>     2.2617     0.0000     0.0000 </r>
       <r>     2.3327     0.0000     0.0000 </r>
       <r>     2.4037     0.0000     0.0000 </r>
       <r>     2.4747     0.0000     0.0000 </r>
       <r>     2.5457     0.0000     0.0000 </r>
       <r>     2.6166     0.0000     0.0000 </r>
       <r>     2.6876     0.0000     0.0000 </r>
       <r>     2.7586     0.0000     0.0000 </r>
       <r>     2.8296     0.0000     0.0000 </r>
       <r>     2.9006     0.0000     0.0000 </r>
       <r>     2.9715     0.0000     0.0000 </r>
       <r>     3.0425     0.0000     0.0000 </r>
       <r>     3.1135     0.0000     0.0000 </r>
       <r>     3.1845     0.0000     0.0000 </r>
       <r>     3.2555     0.0000     0.0000 </r>
       <r>     3.3264     0.0000     0.0000 </r>
       <r>     3.3974     0.0000     0.0000 </r>
       <r>     3.4684     0.0000     0.0000 </r>
       <r>     3.5394     0.0000     0.0000 </r>
       <r>     3.6104     0.0000     0.0000 </r>
       <r>     3.6813     0.0000     0.0000 </r>
       <r>     3.7523     0.0000     0.0000 </r>
       <r>     3.8233     0.0000     0.0000 </r>
       <r>     3.8943     0.0000     0.0000 </r>
       <r>     3.9653     0.0000     0.0000 </r>
       <r>     4.0362     0.0000     0.0000 </r>
       <r>     4.1072     0.0000     0.0000 </r>
       <r>     4.1782     0.0000     0.0000 </r>
       <r>     4.2492     0.0000     0.0000 </r>
       <r>     4.3202     0.0000     0.0000 </r>
       <r>     4.3911     0.0000     0.0000 </r>
       <r>     4.4621     0.0000     0.0000 </r>
       <r>     4.5331     0.0000     0.0000 </r>
       <r>     4.6041     0.0000     0.0000 </r>
       <r>     4.6751     0.0000     0.0000 </r>
       <r>     4.7460     0.0000     0.0000 </r>
       <r>     4.8170     0.0000     0.0000 </r>
       <r>     4.8880     0.0000     0.0000 </r>
       <r>     4.9590     0.0000     0.0000 </r>
       <r>     5.0300     0.0000     0.0000 </r>
       <r>     5.1009     0.0000     0.0000 </r>
       <r>     5.1719     0.0000     0.0000 </r>
       <r>     5.2429     0.0000     0.0000 </r>
       <r>     5.3139     0.0000     0.0000 </r>
       <r>     5.3849     0.0000     0.0000 </r>
       <r>     5.4558     0.0000     0.0000 </r>
       <r>     5.5268     0.0000     0.0000 </r>
       <r>     5.5978     0.0000     0.0000 </r>
       <r>     5.6688     0.0000     0.0000 </r>
       <r>     5.7398     0.0000     0.0000 </r>
       <r>     5.8107     0.0000     0.0000 </r>
       <r>     5.8817     0.0000     0.0000 </r>
       <r>     5.9527     0.0000     0.0000 </r>
       <r>     6.0237     0.0000     0.0000 </r>
       <r>     6.0947     0.0000     0.0000 </r>
       <r>     6.1656     0.0000     0.0000 </r>
       <r>     6.2366     0.0000     0.0000 </r>
       <r>     6.3076     0.0000     0.0000 </r>
       <r>     6.3786     0.0000     0.0000 </r>
       <r>     6.4496     0.0000     0.0000 </r>
       <r>     6.5205     0.0000     0.0000 </r>
       <r>     6.5915     0.0000     0.0000 </r>
       <r>     6.6625     0.0000     0.0000 </r>
       <r>     6.7335     0.0000     0.0000 </r>
       <r>     6.8045     0.0000     0.0000 </r>
       <r>     6.8754     0.0000     0.0000 </r>
       <r>     6.9464     0.0000     0.0000 </r>
       <r>     7.0174     0.0000     0.0000 </r>
       <r>     7.0884     0.0000     0.0000 </r>
       <r>     7.1594     0.0000     0.0000 </r>
       <r>     7.2303     0.0000     0.0000 </r>
       <r>     7.3013     0.0000     0.0000 </r>
       <r>     7.3723     0.0000     0.0000 </r>
       <r>     7.4433     0.0000     0.0000 </r>
       <r>     7.5143     0.0000     0.0000 </r>
       <r>     7.5852     0.0000     0.0000 </r>
       <r>     7.6562     0.0000     0.0000 </r>
       <r>     7.7272     0.0000     0.0000 </r>
       <r>     7.7982     0.0000     0.0000 </r>
[...]
        <r> -0.0916 -0.0013 -0.0043 -0.0038 -0.0002 -0.0000 -0.0000 -0.0001 -0.0001 </r>
       </set>
       <set comment="band 2">
        <r>  0.0942  0.0012  0.0037  0.0035  0.0001  0.0001  0.0000  0.0002  0.0000 </r>
        <r>  0.0916  0.0013  0.0043  0.0038  0.0002  0.0000  0.0000  0.0001  0.0001 </r>
        <r>  0.0942  0.0012  0.0037  0.0035  0.0001  0.0001  0.0000  0.0002  0.0000 </r>
        <r>  0.0916  0.0014  0.0043  0.0038  0.0002  0.0000  0.0000  0.0001  0.0001 </r>
       </set>
       <set comment="band 3">
        <r> -0.0678 -0.0004 -0.0251 -0.0014 -0.0011 -0.0003 -0.0009 -0.0009 -0.0003 </r>
        <r> -0.0863 -0.0010 -0.0248 -0.0030 -0.0000 -0.0005 -0.0011 -0.0013 -0.0000 </r>
        <r> -0.0678 -0.0004 -0.0251 -0.0013 -0.0010 -0.0003 -0.0009 -0.0009 -0.0003 </r>
        <r> -0.0863 -0.0009 -0.0248 -0.0030 -0.0000 -0.0005 -0.0011 -0.0013 -0.0000 </r>
       </set>
       <set comment="band 4">
        <r>  0.0678  0.0004  0.0251  0.0013  0.0010  0.0003  0.0009  0.0009  0.0003 </r>
        <r>  0.0863  0.0009  0.0248  0.0030  0.0000  0.0005  0.0011  0.0013  0.0000 </r>
        <r>  0.0678  0.0004  0.0251  0.0014  0.0011  0.0003  0.0009  0.0009  0.0003 </r>
        <r>  0.0863  0.0010  0.0248  0.0030  0.0000  0.0005  0.0011  0.0013  0.0000 </r>
       </set>
       <set comment="band 5">
        <r>  0.0337  0.0077  0.0060  0.0242  0.0011  0.0001  0.0008  0.0003  0.0003 </r>
        <r>  0.0212  0.0060  0.0013  0.0176  0.0009  0.0000  0.0001  0.0001  0.0003 </r>
        <r>  0.0337  0.0083  0.0060  0.0236  0.0011  0.0001  0.0008  0.0003  0.0003 </r>
        <r>  0.0212  0.0061  0.0013  0.0175  0.0009  0.0000  0.0001  0.0001  0.0003 </r>
       </set>
       <set comment="band 6">
        <r> -0.0337 -0.0083 -0.0060 -0.0236 -0.0011 -0.0001 -0.0008 -0.0003 -0.0003 </r>
        <r> -0.0212 -0.0061 -0.0013 -0.0175 -0.0009 -0.0000 -0.0001 -0.0001 -0.0003 </r>
        <r> -0.0337 -0.0077 -0.0060 -0.0242 -0.0011 -0.0001 -0.0008 -0.0003 -0.0003 </r>
        <r> -0.0212 -0.0060 -0.0013 -0.0176 -0.0009 -0.0000 -0.0001 -0.0001 -0.0003 </r>
       </set>
       <set comment="band 7">
        <r> -0.0980 -0.0017 -0.0066 -0.0124 -0.0028 -0.0003 -0.0012 -0.0009 -0.0010 </r>
        <r> -0.0851 -0.0028 -0.0194 -0.0200 -0.0063 -0.0006 -0.0028 -0.0010 -0.0016 </r>
        <r> -0.0980 -0.0036 -0.0066 -0.0105 -0.0031 -0.0004 -0.0012 -0.0008 -0.0006 </r>
        <r> -0.0851 -0.0070 -0.0194 -0.0158 -0.0061 -0.0002 -0.0028 -0.0013 -0.0018 </r>
       </set>
       <set comment="band 8">
        <r>  0.0980  0.0036  0.0066  0.0105  0.0031  0.0004  0.0012  0.0008  0.0006 </r>
        <r>  0.0851  0.0070  0.0194  0.0158  0.0061  0.0002  0.0028  0.0013  0.0018 </r>
        <r>  0.0980  0.0017  0.0066  0.0124  0.0028  0.0003  0.0012  0.0009  0.0010 </r>
        <r>  0.0851  0.0028  0.0194  0.0200  0.0063  0.0006  0.0028  0.0010  0.0016 </r>
       </set>
       <set comment="band 9">
        <r>  0.0005  0.0293  0.0000  0.0142  0.0002  0.0008  0.0000  0.0003  0.0011 </r>
        <r>  0.0004  0.0297  0.0001  0.0135  0.0006  0.0010  0.0000  0.0001  0.0007 </r>
        <r>  0.0005  0.0323  0.0000  0.0113  0.0005  0.0009  0.0000  0.0002  0.0007 </r>
        <r>  0.0004  0.0324  0.0001  0.0107  0.0004  0.0007  0.0000  0.0004  0.0010 </r>
       </set>
       <set comment="band 10">
        <r> -0.0005 -0.0323 -0.0000 -0.0113 -0.0005 -0.0009 -0.0000 -0.0002 -0.0007 </r>
        <r> -0.0004 -0.0324 -0.0001 -0.0107 -0.0004 -0.0007 -0.0000 -0.0004 -0.0010 </r>
        <r> -0.0005 -0.0293 -0.0000 -0.0142 -0.0002 -0.0008 -0.0000 -0.0003 -0.0011 </r>
        <r> -0.0004 -0.0297 -0.0001 -0.0135 -0.0006 -0.0010 -0.0000 -0.0001 -0.0007 </r>
       </set>
       <set comment="band 11">
        <r>  0.0010  0.0073  0.0097  0.0125  0.0020  0.0007  0.0019  0.0019  0.0006 </r>
        <r>  0.0016  0.0065  0.0176  0.0200  0.0014  0.0006  0.0014  0.0010  0.0004 </r>
        <r>  0.0010  0.0031  0.0097  0.0167  0.0019  0.0006  0.0019  0.0019  0.0006 </r>
        <r>  0.0016  0.0066  0.0176  0.0200  0.0014  0.0002  0.0014  0.0014  0.0004 </r>
       </set>
       <set comment="band 12">
        <r> -0.0010 -0.0031 -0.0097 -0.0167 -0.0019 -0.0006 -0.0019 -0.0019 -0.0006 </r>
        <r> -0.0016 -0.0066 -0.0176 -0.0200 -0.0014 -0.0002 -0.0014 -0.0014 -0.0004 </r>
        <r> -0.0010 -0.0073 -0.0097 -0.0125 -0.0020 -0.0007 -0.0019 -0.0019 -0.0006 </r>
        <r> -0.0016 -0.0065 -0.0176 -0.0200 -0.0014 -0.0006 -0.0014 -0.0010 -0.0004 </r>
       </set>
       <set comment="band 13">
        <r> -0.0010 -0.0053 -0.0058  0.0067 -0.0000  0.0002 -0.0005 -0.0001 -0.0005 </r>
        <r>  0.0005 -0.0029 -0.0078  0.0043 -0.0005 -0.0006 -0.0003  0.0006  0.0005 </r>
        <r> -0.0010 -0.0041 -0.0058  0.0056  0.0001  0.0000 -0.0005  0.0000 -0.0006 </r>
        <r>  0.0005 -0.0017 -0.0078  0.0031  0.0001  0.0005 -0.0003 -0.0005 -0.0001 </r>
       </set>
       <set comment="band 14">
        <r>  0.0010  0.0041  0.0058 -0.0056 -0.0001 -0.0000  0.0005 -0.0000  0.0006 </r>
        <r> -0.0005  0.0017  0.0078 -0.0031 -0.0001 -0.0005  0.0003  0.0005  0.0001 </r>
        <r>  0.0010  0.0053  0.0058 -0.0067  0.0000 -0.0002  0.0005  0.0001  0.0005 </r>
        <r> -0.0005  0.0029  0.0078 -0.0043  0.0005  0.0006  0.0003 -0.0006 -0.0005 </r>
       </set>
       <set comment="band 15">
        <r> -0.0002  0.0238 -0.0022  0.0034 -0.0001  0.0028 -0.0002  0.0020  0.0008 </r>
        <r>  0.0000  0.0248 -0.0019  0.0046  0.0004  0.0037 -0.0001  0.0006  0.0004 </r>
        <r> -0.0002  0.0257 -0.0022  0.0015 -0.0004  0.0040 -0.0002  0.0008  0.0011 </r>
        <r>  0.0000  0.0262 -0.0019  0.0033  0.0001  0.0029 -0.0001  0.0015  0.0007 </r>
       </set>
       <set comment="band 16">
        <r>  0.0002 -0.0257  0.0022 -0.0015  0.0004 -0.0040  0.0002 -0.0008 -0.0011 </r>
        <r> -0.0000 -0.0262  0.0019 -0.0033 -0.0001 -0.0029  0.0001 -0.0015 -0.0007 </r>
        <r>  0.0002 -0.0238  0.0022 -0.0034  0.0001 -0.0028  0.0002 -0.0020 -0.0008 </r>
        <r> -0.0000 -0.0248  0.0019 -0.0046 -0.0004 -0.0037  0.0001 -0.0006 -0.0004 </r>
       </set>
       <set comment="band 17">
        <r> -0.0244  0.0003 -0.0013 -0.0012 -0.0015 -0.0003 -0.0011 -0.0017 -0.0004 </r>
        <r> -0.0450 -0.0034 -0.0148 -0.0050 -0.0005 -0.0003 -0.0005 -0.0015 -0.0001 </r>
        <r> -0.0244 -0.0005 -0.0013 -0.0004 -0.0014 -0.0006 -0.0011 -0.0014 -0.0005 </r>
        <r> -0.0450 -0.0022 -0.0148 -0.0061 -0.0004 -0.0005 -0.0005 -0.0013 -0.0002 </r>
       </set>
       <set comment="band 18">
        <r>  0.0244  0.0005  0.0013  0.0004  0.0014  0.0006  0.0011  0.0014  0.0005 </r>
        <r>  0.0450  0.0022  0.0148  0.0061  0.0004  0.0005  0.0005  0.0013  0.0002 </r>
        <r>  0.0244 -0.0003  0.0013  0.0012  0.0015  0.0003  0.0011  0.0017  0.0004 </r>
        <r>  0.0450  0.0034  0.0148  0.0050  0.0005  0.0003  0.0005  0.0015  0.0001 </r>
       </set>
       <set comment="band 19">
        <r>  0.0230  0.0086  0.0014  0.0481  0.0043  0.0034  0.0112  0.0049 -0.0008 </r>
        <r>  0.0020  0.0021  0.0115  0.0354  0.0010  0.0002  0.0154  0.0030  0.0022 </r>
        <r>  0.0230  0.0140  0.0014  0.0427  0.0006  0.0002  0.0112  0.0081  0.0029 </r>
        <r>  0.0020  0.0207  0.0115  0.0169  0.0022  0.0010  0.0154  0.0021  0.0010 </r>
       </set>
       <set comment="band 20">
        <r> -0.0230 -0.0140 -0.0014 -0.0427 -0.0006 -0.0002 -0.0112 -0.0081 -0.0029 </r>
        <r> -0.0020 -0.0207 -0.0115 -0.0169 -0.0022 -0.0010 -0.0154 -0.0021 -0.0010 </r>
        <r> -0.0230 -0.0086 -0.0014 -0.0481 -0.0043 -0.0034 -0.0112 -0.0049  0.0008 </r>
        <r> -0.0020 -0.0021 -0.0115 -0.0354 -0.0010 -0.0002 -0.0154 -0.0030 -0.0022 </r>
       </set>
       <set comment="band 21">
        <r>  0.0009  0.0438  0.0000  0.0175  0.0041  0.0042  0.0005  0.0038  0.0190 </r>
        <r>  0.0001  0.0455  0.0004  0.0006  0.0057  0.0067  0.0007  0.0020  0.0160 </r>
        <r>  0.0009  0.0375  0.0000  0.0238  0.0069  0.0068  0.0005  0.0012  0.0162 </r>
        <r>  0.0001  0.0235  0.0004  0.0227  0.0038  0.0055  0.0007  0.0032  0.0180 </r>
       </set>
       <set comment="band 22">
        <r> -0.0009 -0.0375 -0.0000 -0.0238 -0.0069 -0.0068 -0.0005 -0.0012 -0.0162 </r>
        <r> -0.0001 -0.0235 -0.0004 -0.0227 -0.0038 -0.0055 -0.0007 -0.0032 -0.0180 </r>
        <r> -0.0009 -0.0438 -0.0000 -0.0175 -0.0041 -0.0042 -0.0005 -0.0038 -0.0190 </r>
        <r> -0.0001 -0.0455 -0.0004 -0.0006 -0.0057 -0.0067 -0.0007 -0.0020 -0.0160 </r>
       </set>
       <set comment="band 23">
        <r>  0.0041  0.0023 -0.0002  0.0020  0.0003  0.0004  0.0007  0.0001  0.0004 </r>
        <r>  0.0010  0.0004  0.0027  0.0055  0.0002 -0.0001  0.0008  0.0011  0.0008 </r>
        <r>  0.0041  0.0001 -0.0002  0.0042  0.0010 -0.0001  0.0007  0.0005 -0.0003 </r>
        <r>  0.0010  0.0029  0.0027  0.0030  0.0012  0.0007  0.0008  0.0002 -0.0002 </r>
       </set>
       <set comment="band 24">
        <r> -0.0041 -0.0001  0.0002 -0.0042 -0.0010  0.0001 -0.0007 -0.0005  0.0003 </r>
        <r> -0.0010 -0.0029 -0.0027 -0.0030 -0.0012 -0.0007 -0.0008 -0.0002  0.0002 </r>
        <r> -0.0041 -0.0023  0.0002 -0.0020 -0.0003 -0.0004 -0.0007 -0.0001 -0.0004 </r>
        <r> -0.0010 -0.0004 -0.0027 -0.0055 -0.0002  0.0001 -0.0008 -0.0011 -0.0008 </r>
       </set>
      </set>
      <set comment="kpoint 4">
       <set comment="band 1">
        <r> -0.0748 -0.0097 -0.0029 -0.0035 -0.0002 -0.0003 -0.0000 -0.0001 -0.0002 </r>
        <r> -0.0751 -0.0099 -0.0029 -0.0033 -0.0002 -0.0003 -0.0000 -0.0002 -0.0002 </r>
        <r> -0.0750 -0.0097 -0.0029 -0.0035 -0.0002 -0.0003 -0.0000 -0.0001 -0.0002 </r>
        <r> -0.0749 -0.0099 -0.0029 -0.0033 -0.0002 -0.0003 -0.0000 -0.0002 -0.0002 </r>
       </set>
       <set comment="band 2">
        <r>  0.0750  0.0097  0.0029  0.0035  0.0002  0.0003  0.0000  0.0001  0.0002 </r>
        <r>  0.0749  0.0099  0.0029  0.0033  0.0002  0.0003  0.0000  0.0002  0.0002 </r>
        <r>  0.0748  0.0097  0.0029  0.0035  0.0002  0.0003  0.0000  0.0001  0.0002 </r>
        <r>  0.0751  0.0099  0.0029  0.0033  0.0002  0.0003  0.0000  0.0002  0.0002 </r>
       </set>
       <set comment="band 3">
        <r> -0.0731 -0.0139 -0.0042 -0.0145 -0.0003 -0.0007 -0.0005 -0.0002 -0.0009 </r>
        <r> -0.0760 -0.0172 -0.0041 -0.0096 -0.0004 -0.0002 -0.0005 -0.0007 -0.0008 </r>
        <r> -0.0759 -0.0133 -0.0041 -0.0136 -0.0003 -0.0007 -0.0005 -0.0002 -0.0009 </r>
        <r> -0.0732 -0.0178 -0.0042 -0.0105 -0.0004 -0.0002 -0.0005 -0.0007 -0.0008 </r>
       </set>
       <set comment="band 4">
        <r>  0.0759  0.0133  0.0041  0.0136  0.0003  0.0007  0.0005  0.0002  0.0009 </r>
        <r>  0.0732  0.0178  0.0042  0.0105  0.0004  0.0002  0.0005  0.0007  0.0008 </r>
        <r>  0.0731  0.0139  0.0042  0.0145  0.0003  0.0007  0.0005  0.0002  0.0009 </r>
        <r>  0.0760  0.0172  0.0041  0.0096  0.0004  0.0002  0.0005  0.0007  0.0008 </r>
       </set>
       <set comment="band 5">
        <r> -0.1120 -0.0140 -0.0085 -0.0057 -0.0005 -0.0009 -0.0004 -0.0023 -0.0009 </r>
        <r> -0.1085 -0.0001 -0.0087 -0.0199 -0.0004 -0.0029 -0.0004 -0.0002 -0.0010 </r>
        <r> -0.1083 -0.0142 -0.0087 -0.0059 -0.0005 -0.0008 -0.0004 -0.0023 -0.0009 </r>
        <r> -0.1122 -0.0001 -0.0085 -0.0194 -0.0004 -0.0029 -0.0004 -0.0002 -0.0010 </r>
       </set>
       <set comment="band 6">
        <r>  0.1083  0.0142  0.0087  0.0059  0.0005  0.0008  0.0004  0.0023  0.0009 </r>
        <r>  0.1122  0.0001  0.0085  0.0194  0.0004  0.0029  0.0004  0.0002  0.0010 </r>
        <r>  0.1120  0.0140  0.0085  0.0057  0.0005  0.0009  0.0004  0.0023  0.0009 </r>
        <r>  0.1085  0.0001  0.0087  0.0199  0.0004  0.0029  0.0004  0.0002  0.0010 </r>
       </set>
       <set comment="band 7">
        <r>  0.0174  0.0143  0.0175  0.0070  0.0003  0.0014  0.0003  0.0001  0.0000 </r>
        <r>  0.0178  0.0107  0.0166  0.0106  0.0000  0.0002  0.0003  0.0014  0.0003 </r>
        <r>  0.0175  0.0135  0.0173  0.0063  0.0003  0.0014  0.0003  0.0002  0.0000 </r>
        <r>  0.0177  0.0115  0.0168  0.0113  0.0000  0.0002  0.0003  0.0013  0.0003 </r>
       </set>
       <set comment="band 8">
        <r> -0.0175 -0.0135 -0.0173 -0.0063 -0.0003 -0.0014 -0.0003 -0.0002 -0.0000 </r>
        <r> -0.0177 -0.0115 -0.0168 -0.0113 -0.0000 -0.0002 -0.0003 -0.0013 -0.0003 </r>
        <r> -0.0174 -0.0143 -0.0175 -0.0070 -0.0003 -0.0014 -0.0003 -0.0001 -0.0000 </r>
        <r> -0.0178 -0.0107 -0.0166 -0.0106 -0.0000 -0.0002 -0.0003 -0.0014 -0.0003 </r>
       </set>
       <set comment="band 9">
        <r>  0.0254  0.0027  0.0519  0.0394  0.0007  0.0015  0.0002  0.0027  0.0014 </r>
        <r>  0.0251  0.0344  0.0514  0.0085  0.0004  0.0029  0.0002  0.0014  0.0016 </r>
        <r>  0.0251  0.0031  0.0513  0.0401  0.0007  0.0015  0.0002  0.0028  0.0014 </r>
        <r>  0.0254  0.0343  0.0520  0.0075  0.0004  0.0029  0.0003  0.0014  0.0017 </r>
       </set>
       <set comment="band 10">
        <r> -0.0251 -0.0031 -0.0513 -0.0401 -0.0007 -0.0015 -0.0002 -0.0028 -0.0014 </r>
        <r> -0.0254 -0.0343 -0.0520 -0.0075 -0.0004 -0.0029 -0.0003 -0.0014 -0.0017 </r>
        <r> -0.0254 -0.0027 -0.0519 -0.0394 -0.0007 -0.0015 -0.0002 -0.0027 -0.0014 </r>
        <r> -0.0251 -0.0344 -0.0514 -0.0085 -0.0004 -0.0029 -0.0002 -0.0014 -0.0016 </r>
       </set>
       <set comment="band 11">
        <r> -0.0123 -0.0352 -0.0212 -0.0561 -0.0002 -0.0018 -0.0012 -0.0020 -0.0015 </r>
        <r> -0.0109 -0.0291 -0.0201 -0.0657 -0.0017 -0.0011 -0.0012 -0.0027 -0.0001 </r>
        <r> -0.0108 -0.0365 -0.0203 -0.0579 -0.0002 -0.0017 -0.0012 -0.0021 -0.0016 </r>
        <r> -0.0124 -0.0278 -0.0211 -0.0639 -0.0017 -0.0011 -0.0012 -0.0027 -0.0001 </r>
       </set>
       <set comment="band 12">
        <r>  0.0108  0.0365  0.0203  0.0579  0.0002  0.0017  0.0012  0.0021  0.0016 </r>
        <r>  0.0124  0.0278  0.0211  0.0639  0.0017  0.0011  0.0012  0.0027  0.0001 </r>
        <r>  0.0123  0.0352  0.0212  0.0561  0.0002  0.0018  0.0012  0.0020  0.0015 </r>
        <r>  0.0109  0.0291  0.0201  0.0657  0.0017  0.0011  0.0012  0.0027  0.0001 </r>
       </set>
       <set comment="band 13">
        <r> -0.0570 -0.0261 -0.0279 -0.0009 -0.0046 -0.0025 -0.0028 -0.0017 -0.0031 </r>
        <r> -0.0605 -0.0057 -0.0262 -0.0184 -0.0051 -0.0038 -0.0028 -0.0006 -0.0023 </r>
        <r> -0.0605 -0.0237 -0.0263 -0.0006 -0.0047 -0.0025 -0.0028 -0.0019 -0.0028 </r>
        <r> -0.0571 -0.0061 -0.0278 -0.0207 -0.0054 -0.0035 -0.0027 -0.0007 -0.0024 </r>
       </set>
       <set comment="band 14">
        <r>  0.0605  0.0237  0.0263  0.0006  0.0047  0.0025  0.0028  0.0019  0.0028 </r>
        <r>  0.0571  0.0061  0.0278  0.0207  0.0054  0.0035  0.0027  0.0007  0.0024 </r>
        <r>  0.0570  0.0261  0.0279  0.0009  0.0046  0.0025  0.0028  0.0017  0.0031 </r>
        <r>  0.0605  0.0057  0.0262  0.0184  0.0051  0.0038  0.0028  0.0006  0.0023 </r>
       </set>
       <set comment="band 15">
        <r>  0.0039  0.0191  0.0075  0.0258  0.0020  0.0028  0.0013  0.0048  0.0082 </r>
        <r>  0.0061  0.0077  0.0037  0.0392  0.0037  0.0023  0.0009  0.0059  0.0064 </r>
        <r>  0.0056  0.0181  0.0045  0.0280  0.0022  0.0025  0.0011  0.0055  0.0080 </r>
        <r>  0.0044  0.0060  0.0067  0.0396  0.0037  0.0018  0.0011  0.0060  0.0064 </r>
       </set>
       <set comment="band 16">
        <r> -0.0056 -0.0181 -0.0045 -0.0280 -0.0022 -0.0025 -0.0011 -0.0055 -0.0080 </r>
        <r> -0.0044 -0.0060 -0.0067 -0.0396 -0.0037 -0.0018 -0.0011 -0.0060 -0.0064 </r>
        <r> -0.0039 -0.0191 -0.0075 -0.0258 -0.0020 -0.0028 -0.0013 -0.0048 -0.0082 </r>
        <r> -0.0061 -0.0077 -0.0037 -0.0392 -0.0037 -0.0023 -0.0009 -0.0059 -0.0064 </r>
       </set>
       <set comment="band 17">
        <r> -0.0046 -0.0003 -0.0128 -0.0043 -0.0015 -0.0021 -0.0038  0.0000 -0.0003 </r>
        <r> -0.0038 -0.0062 -0.0135 -0.0002 -0.0008 -0.0010 -0.0044 -0.0011 -0.0014 </r>
        <r> -0.0049 -0.0003 -0.0128 -0.0053 -0.0011 -0.0022 -0.0038 -0.0001 -0.0005 </r>
        <r> -0.0036 -0.0054 -0.0135  0.0001 -0.0009 -0.0007 -0.0043 -0.0011 -0.0014 </r>
       </set>
       <set comment="band 18">
        <r>  0.0049  0.0003  0.0128  0.0053  0.0011  0.0022  0.0038  0.0001  0.0005 </r>
        <r>  0.0036  0.0054  0.0135 -0.0001  0.0009  0.0007  0.0043  0.0011  0.0014 </r>
        <r>  0.0046  0.0003  0.0128  0.0043  0.0015  0.0021  0.0038 -0.0000  0.0003 </r>
        <r>  0.0038  0.0062  0.0135  0.0002  0.0008  0.0010  0.0044  0.0011  0.0014 </r>
       </set>
       <set comment="band 19">
        <r>  0.0172  0.0330  0.0331  0.0332  0.0013  0.0064  0.0179  0.0090  0.0006 </r>
        <r>  0.0156  0.0206  0.0456  0.0540  0.0013  0.0134  0.0182  0.0012  0.0020 </r>
        <r>  0.0165  0.0396  0.0433  0.0334  0.0022  0.0072  0.0178  0.0084  0.0005 </r>
        <r>  0.0163  0.0146  0.0354  0.0532  0.0012  0.0132  0.0183  0.0012  0.0013 </r>
       </set>
       <set comment="band 20">
        <r> -0.0165 -0.0396 -0.0433 -0.0334 -0.0022 -0.0072 -0.0178 -0.0084 -0.0005 </r>
        <r> -0.0163 -0.0146 -0.0354 -0.0532 -0.0012 -0.0132 -0.0183 -0.0012 -0.0013 </r>
        <r> -0.0172 -0.0330 -0.0331 -0.0332 -0.0013 -0.0064 -0.0179 -0.0090 -0.0006 </r>
        <r> -0.0156 -0.0206 -0.0456 -0.0540 -0.0013 -0.0134 -0.0182 -0.0012 -0.0020 </r>
       </set>
       <set comment="band 21">
        <r>  0.0074  0.0304  0.0449  0.0151  0.0098  0.0005  0.0010  0.0071  0.0021 </r>
        <r>  0.0074  0.0281  0.0346  0.0071  0.0062  0.0056  0.0016  0.0031  0.0044 </r>
        <r>  0.0078  0.0230  0.0336  0.0114  0.0088  0.0000  0.0013  0.0090  0.0017 </r>
        <r>  0.0070  0.0368  0.0460  0.0096  0.0074  0.0051  0.0014  0.0021  0.0045 </r>
       </set>
       <set comment="band 22">
        <r> -0.0078 -0.0230 -0.0336 -0.0114 -0.0088 -0.0000 -0.0013 -0.0090 -0.0017 </r>
        <r> -0.0070 -0.0368 -0.0460 -0.0096 -0.0074 -0.0051 -0.0014 -0.0021 -0.0045 </r>
        <r> -0.0074 -0.0304 -0.0449 -0.0151 -0.0098 -0.0005 -0.0010 -0.0071 -0.0021 </r>
        <r> -0.0074 -0.0281 -0.0346 -0.0071 -0.0062 -0.0056 -0.0016 -0.0031 -0.0044 </r>
       </set>
       <set comment="band 23">
        <r>  0.0015  0.0010  0.0054  0.0280  0.0068  0.0055  0.0060  0.0176  0.0120 </r>
        <r> -0.0014  0.0431  0.0073  0.0119  0.0091  0.0050  0.0033  0.0192  0.0091 </r>
        <r> -0.0015  0.0003  0.0086  0.0532  0.0059  0.0074  0.0030  0.0163  0.0132 </r>
        <r>  0.0016  0.0149  0.0041  0.0158  0.0062  0.0057  0.0062  0.0179  0.0117 </r>
       </set>
       <set comment="band 24">
        <r>  0.0016 -0.0002 -0.0086 -0.0535 -0.0059 -0.0074 -0.0030 -0.0163 -0.0132 </r>
        <r> -0.0016 -0.0143 -0.0042 -0.0159 -0.0062 -0.0057 -0.0063 -0.0178 -0.0117 </r>
        <r> -0.0015 -0.0010 -0.0054 -0.0275 -0.0069 -0.0055 -0.0060 -0.0176 -0.0119 </r>
        <r>  0.0015 -0.0435 -0.0073 -0.0119 -0.0091 -0.0050 -0.0033 -0.0192 -0.0091 </r>
       </set>
      </set>
     </set>
    </set>
   </array>
  </projected>
 </calculation>
 <structure name="finalpos" >
  <crystal>
   <varray name="basis" >
    <v>       4.35155188       0.01064991       0.00000000 </v>
    <v>      -2.09701412       3.81295742       0.00000000 </v>
    <v>       0.00000000       0.00000000       4.40600814 </v>
   </varray>
   <i name="volume">     73.20412919 </i>
   <varray name="rec_basis" >
    <v>       0.22949418       0.12621503       0.00000000 </v>
    <v>      -0.00064100       0.26191109       0.00000000 </v>
    <v>       0.00000000       0.00000000       0.22696281 </v>
   </varray>
  </crystal>
  <varray name="positions" >
   <v>       0.15604272       0.84395728       0.91665406 </v>
   <v>       0.34395728       0.65604272       0.41665406 </v>
   <v>       0.84395728       0.15604272       0.08334594 </v>
   <v>       0.65604272       0.34395728       0.58334594 </v>
  </varray>
 </structure>
</modeling>
