<?xml version="1.0" encoding="ISO-8859-1"?>
<modeling>
 <generator>
  <i name="program" type="string">vasp </i>
  <i name="version" type="string">5.4.1  </i>
  <i name="subversion" type="string">05Feb16 (build Nov 06 2018 21:00:16) complex                          parallel </i>
  <i name="platform" type="string">IFC91_ompi </i>
  <i name="date" type="string">2019 02 01 </i>
  <i name="time" type="string">13:40:37 </i>
 </generator>
 <incar>
  <i type="string" name="PREC">accurate</i>
  <i type="string" name="ALGO"> Fast</i>
  <i type="int" name="NSIM">     1</i>
  <i type="int" name="ISPIN">     2</i>
  <i type="int" name="NELM">   100</i>
  <i type="int" name="IBRION">     2</i>
  <i name="EDIFF">      0.00010000</i>
  <i type="int" name="NSW">     0</i>
  <i type="int" name="ISYM">     0</i>
  <i name="ENCUT">    320.00000000</i>
  <i type="string" name="LREAL"> Auto</i>
  <i type="int" name="ISMEAR">     0</i>
  <i name="SIGMA">      0.00000000</i>
  <i type="logical" name="LWAVE"> T  </i>
  <i type="logical" name="LORBIT"> F  </i>
  <i type="logical" name="LAECHG"> T  </i>
  <v type="int" name="KPOINT_BSE">    -1     0     0     0</v>
  <i type="int" name="NELM">   100</i>
 </incar>
 <kpoints>
  <generation param="Monkhorst-Pack">
   <v type="int" name="divisions">       2        2        2 </v>
   <v name="usershift">      0.00000000       0.00000000       0.00000000 </v>
   <v name="genvec1">      0.50000000       0.00000000       0.00000000 </v>
   <v name="genvec2">     -0.00000000       0.50000000       0.00000000 </v>
   <v name="genvec3">      0.00000000       0.00000000       0.50000000 </v>
   <v name="shift">      0.50000000       0.50000000       0.50000000 </v>
  </generation>
  <varray name="kpointlist" >
   <v>       0.25000000       0.25000000       0.25000000 </v>
   <v>      -0.25000000       0.25000000       0.25000000 </v>
   <v>       0.25000000      -0.25000000       0.25000000 </v>
   <v>      -0.25000000      -0.25000000       0.25000000 </v>
  </varray>
  <varray name="weights" >
   <v>       0.25000000 </v>
   <v>       0.25000000 </v>
   <v>       0.25000000 </v>
   <v>       0.25000000 </v>
  </varray>
 </kpoints>
 <parameters>
  <separator name="general" >
   <i type="string" name="SYSTEM">unknown system</i>
   <i type="logical" name="LCOMPAT"> F  </i>
  </separator>
  <separator name="electronic" >
   <i type="string" name="PREC">accura</i>
   <i name="ENMAX">    320.00000000</i>
   <i name="ENAUG">    320.26400000</i>
   <i name="EDIFF">      0.00010000</i>
   <i type="int" name="IALGO">    68</i>
   <i type="int" name="IWAVPR">    10</i>
   <i type="int" name="NBANDS">    24</i>
   <i name="NELECT">     12.00000000</i>
   <i type="int" name="TURBO">     0</i>
   <i type="int" name="IRESTART">     0</i>
   <i type="int" name="NREBOOT">     0</i>
   <i type="int" name="NMIN">     0</i>
   <i name="EREF">      0.00000000</i>
   <separator name="electronic smearing" >
    <i type="int" name="ISMEAR">     0</i>
    <i name="SIGMA">      0.00000000</i>
    <i name="KSPACING">      0.50000000</i>
    <i type="logical" name="KGAMMA"> T  </i>
   </separator>
   <separator name="electronic projectors" >
    <i type="logical" name="LREAL"> T  </i>
    <v name="ROPT">     -0.00025000</v>
    <i type="int" name="LMAXPAW">  -100</i>
    <i type="int" name="LMAXMIX">     2</i>
    <i type="logical" name="NLSPLINE"> F  </i>
   </separator>
   <separator name="electronic startup" >
    <i type="int" name="ISTART">     1</i>
    <i type="int" name="ICHARG">     0</i>
    <i type="int" name="INIWAV">     1</i>
   </separator>
   <separator name="electronic spin" >
    <i type="int" name="ISPIN">     2</i>
    <i type="logical" name="LNONCOLLINEAR"> F  </i>
    <v name="MAGMOM">      1.00000000      1.00000000      1.00000000      1.00000000</v>
    <i name="NUPDOWN">     -1.00000000</i>
    <i type="logical" name="LSORBIT"> F  </i>
    <v name="SAXIS">      0.00000000      0.00000000      1.00000000</v>
    <i type="logical" name="LSPIRAL"> F  </i>
    <v name="QSPIRAL">      0.00000000      0.00000000      0.00000000</v>
    <i type="logical" name="LZEROZ"> F  </i>
   </separator>
   <separator name="electronic exchange-correlation" >
    <i type="logical" name="LASPH"> F  </i>
    <i type="logical" name="LMETAGGA"> F  </i>
   </separator>
   <separator name="electronic convergence" >
    <i type="int" name="NELM">   100</i>
    <i type="int" name="NELMDL">     0</i>
    <i type="int" name="NELMIN">     2</i>
    <i name="ENINI">    320.00000000</i>
    <separator name="electronic convergence detail" >
     <i type="logical" name="LDIAG"> T  </i>
     <i type="logical" name="LSUBROT"> F  </i>
     <i name="WEIMIN">      0.00000000</i>
     <i name="EBREAK">      0.00000104</i>
     <i name="DEPER">      0.30000000</i>
     <i type="int" name="NRMM">     4</i>
     <i name="TIME">      0.40000000</i>
    </separator>
   </separator>
   <separator name="electronic mixer" >
    <i name="AMIX">      0.40000000</i>
    <i name="BMIX">      1.00000000</i>
    <i name="AMIN">      0.10000000</i>
    <i name="AMIX_MAG">      1.60000000</i>
    <i name="BMIX_MAG">      1.00000000</i>
    <separator name="electronic mixer details" >
     <i type="int" name="IMIX">     4</i>
     <i type="logical" name="MIXFIRST"> F  </i>
     <i type="int" name="MAXMIX">   -45</i>
     <i name="WC">    100.00000000</i>
     <i type="int" name="INIMIX">     1</i>
     <i type="int" name="MIXPRE">     1</i>
     <i type="int" name="MREMOVE">     5</i>
    </separator>
   </separator>
   <separator name="electronic dipolcorrection" >
    <i type="logical" name="LDIPOL"> F  </i>
    <i type="logical" name="LMONO"> F  </i>
    <i type="int" name="IDIPOL">     0</i>
    <i name="EPSILON">      1.00000000</i>
    <v name="DIPOL">   -100.00000000   -100.00000000   -100.00000000</v>
    <i name="EFIELD">      0.00000000</i>
   </separator>
  </separator>
  <separator name="grids" >
   <i type="int" name="NGX">    28</i>
   <i type="int" name="NGY">    28</i>
   <i type="int" name="NGZ">    28</i>
   <i type="int" name="NGXF">    56</i>
   <i type="int" name="NGYF">    56</i>
   <i type="int" name="NGZF">    56</i>
   <i type="logical" name="ADDGRID"> F  </i>
  </separator>
  <separator name="ionic" >
   <i type="int" name="NSW">     0</i>
   <i type="int" name="IBRION">    -1</i>
   <i type="int" name="ISIF">     2</i>
   <i name="PSTRESS">      0.00000000</i>
   <i name="EDIFFG">      0.00100000</i>
   <i type="int" name="NFREE">     1</i>
   <i name="POTIM">      0.50000000</i>
   <i name="SMASS">     -3.00000000</i>
   <i name="SCALEE">      1.00000000</i>
  </separator>
  <separator name="ionic md" >
   <i name="TEBEG">      0.00010000</i>
   <i name="TEEND">      0.00010000</i>
   <i type="int" name="NBLOCK">     1</i>
   <i type="int" name="KBLOCK">     1</i>
   <i type="int" name="NPACO">   256</i>
   <i name="APACO">     16.00000000</i>
  </separator>
  <separator name="symmetry" >
   <i type="int" name="ISYM">     0</i>
   <i name="SYMPREC">      0.00001000</i>
  </separator>
  <separator name="dos" >
   <i type="logical" name="LORBIT"> F  </i>
   <v name="RWIGS">     -1.00000000</v>
   <i type="int" name="NEDOS">   301</i>
   <i name="EMIN">     10.00000000</i>
   <i name="EMAX">    -10.00000000</i>
   <i name="EFERMI">      0.00000000</i>
  </separator>
  <separator name="writing" >
   <i type="int" name="NWRITE">     2</i>
   <i type="logical" name="LWAVE"> T  </i>
   <i type="logical" name="LCHARG"> T  </i>
   <i type="logical" name="LPARD"> F  </i>
   <i type="logical" name="LVTOT"> F  </i>
   <i type="logical" name="LVHAR"> F  </i>
   <i type="logical" name="LELF"> F  </i>
   <i type="logical" name="LOPTICS"> F  </i>
   <v name="STM">      0.00000000      0.00000000      0.00000000      0.00000000      0.00000000      0.00000000      0.00000000</v>
  </separator>
  <separator name="performance" >
   <i type="int" name="NPAR">    24</i>
   <i type="int" name="NSIM">     1</i>
   <i type="int" name="NBLK">    -1</i>
   <i type="logical" name="LPLANE"> T  </i>
   <i type="logical" name="LSCALAPACK"> T  </i>
   <i type="logical" name="LSCAAWARE"> F  </i>
   <i type="logical" name="LSCALU"> F  </i>
   <i type="logical" name="LASYNC"> F  </i>
   <i type="logical" name="LORBITALREAL"> F  </i>
  </separator>
  <separator name="miscellaneous" >
   <i type="int" name="IDIOT">     3</i>
   <i type="logical" name="LMUSIC"> F  </i>
   <v name="POMASS">     69.72300000</v>
   <v name="DARWINR">      0.00000000</v>
   <v name="DARWINV">      1.00000000</v>
   <i type="logical" name="LCORR"> T  </i>
  </separator>
  <i type="logical" name="GGA_COMPAT"> T  </i>
  <i type="logical" name="LBERRY"> F  </i>
  <i type="int" name="ICORELEVEL">     0</i>
  <i type="logical" name="LDAU"> F  </i>
  <i type="int" name="I_CONSTRAINED_M">     0</i>
  <separator name="electronic exchange-correlation" >
   <i type="string" name="GGA">--</i>
   <i type="int" name="VOSKOWN">     0</i>
   <i type="logical" name="LHFCALC"> F  </i>
   <i type="string" name="PRECFOCK"></i>
   <i type="logical" name="LSYMGRAD"> F  </i>
   <i type="logical" name="LHFONE"> F  </i>
   <i type="logical" name="LRHFCALC"> F  </i>
   <i type="logical" name="LTHOMAS"> F  </i>
   <i type="logical" name="LMODELHF"> F  </i>
   <i name="ENCUT4O">     -1.00000000</i>
   <i type="int" name="EXXOEP">     0</i>
   <i type="int" name="FOURORBIT">     0</i>
   <i name="AEXX">      0.00000000</i>
   <i name="HFALPHA">      0.00000000</i>
   <i name="MCALPHA">      0.00000000</i>
   <i name="ALDAX">      1.00000000</i>
   <i name="AGGAX">      1.00000000</i>
   <i name="ALDAC">      1.00000000</i>
   <i name="AGGAC">      1.00000000</i>
   <i type="int" name="NKREDX">     1</i>
   <i type="int" name="NKREDY">     1</i>
   <i type="int" name="NKREDZ">     1</i>
   <i type="logical" name="SHIFTRED"> F  </i>
   <i type="logical" name="ODDONLY"> F  </i>
   <i type="logical" name="EVENONLY"> F  </i>
   <i type="int" name="LMAXFOCK">     0</i>
   <i type="int" name="NMAXFOCKAE">     0</i>
   <i type="logical" name="LFOCKAEDFT"> F  </i>
   <i name="HFSCREEN">      0.00000000</i>
   <i name="HFSCREENC">      0.00000000</i>
   <i type="int" name="NBANDSGWLOW">     0</i>
  </separator>
  <separator name="vdW DFT" >
   <i type="logical" name="LUSE_VDW"> F  </i>
   <i name="Zab_VDW">     -0.84910000</i>
   <i name="PARAM1">      0.12340000</i>
   <i name="PARAM2">      1.00000000</i>
   <i name="PARAM3">      0.00000000</i>
  </separator>
  <separator name="model GW" >
   <i type="int" name="MODEL_GW">     0</i>
   <i name="MODEL_EPS0">     10.98061938</i>
   <i name="MODEL_ALPHA">      1.00000000</i>
  </separator>
  <separator name="linear response parameters" >
   <i type="logical" name="LEPSILON"> F  </i>
   <i type="logical" name="LRPA"> F  </i>
   <i type="logical" name="LNABLA"> F  </i>
   <i type="logical" name="LVEL"> F  </i>
   <i type="int" name="KINTER">     0</i>
   <i name="CSHIFT">      0.10000000</i>
   <i name="OMEGAMAX">     -1.00000000</i>
   <i name="DEG_THRESHOLD">      0.00200000</i>
  </separator>
  <separator name="orbital magnetization" >
   <i type="logical" name="NUCIND"> F  </i>
   <v name="MAGPOS">      0.00000000      0.00000000      0.00000000</v>
   <i type="logical" name="LNICSALL"> T  </i>
   <i type="logical" name="ORBITALMAG"> F  </i>
   <i type="logical" name="LMAGBLOCH"> F  </i>
   <i type="logical" name="LCHIMAG"> F  </i>
   <i type="logical" name="LGAUGE"> T  </i>
   <i type="int" name="MAGATOM">     0</i>
   <v name="MAGDIPOL">      0.00000000      0.00000000      0.00000000</v>
   <v name="AVECCONST">      0.00000000      0.00000000      0.00000000</v>
  </separator>
  <separator name="response functions" >
   <i type="logical" name="LADDER"> F  </i>
   <i type="logical" name="LFXC"> F  </i>
   <i type="logical" name="LHARTREE"> T  </i>
   <i type="int" name="IBSE">     0</i>
   <v type="int" name="KPOINT">    -1     0     0     0</v>
   <i type="logical" name="LTCTE"> F  </i>
   <i type="logical" name="LTETE"> F  </i>
   <i type="logical" name="LTRIPLET"> F  </i>
   <i type="logical" name="LFXCEPS"> F  </i>
   <i type="logical" name="LFXHEG"> F  </i>
   <i type="int" name="NATURALO">     0</i>
   <i type="logical" name="L2ORDER"> F  </i>
   <i type="logical" name="LUSEW"> F  </i>
   <i name="ENCUTGW">     -2.00000000</i>
   <i name="ENCUTGWSOFT">     -2.00000000</i>
   <i name="ENCUTLF">     -1.00000000</i>
   <i type="int" name="LMAXMP2">    -1</i>
   <i name="SCISSOR">      0.00000000</i>
   <i type="int" name="NOMEGA">     0</i>
   <i type="int" name="NOMEGAR">     0</i>
   <i type="int" name="NBANDSGW">    -1</i>
   <i type="int" name="NBANDSO">    -1</i>
   <i type="int" name="NBANDSV">    -1</i>
   <i type="int" name="NELM">   100</i>
   <i type="int" name="NELMHF">     1</i>
   <i type="int" name="DIM">     3</i>
   <i type="int" name="ANTIRES">     0</i>
   <i name="OMEGAMAX">    -30.00000000</i>
   <i name="OMEGAMIN">    -30.00000000</i>
   <i name="OMEGATL">   -200.00000000</i>
   <i type="int" name="OMEGAGRID">     0</i>
   <i name="CSHIFT">     -0.10000000</i>
   <i type="logical" name="SELFENERGY"> F  </i>
   <i type="logical" name="LSPECTRAL"> F  </i>
   <i type="logical" name="LSPECTRALGW"> F  </i>
   <i type="logical" name="LSINGLES"> F  </i>
   <i type="logical" name="LFERMIGW"> F  </i>
   <i type="logical" name="ODDONLYGW"> F  </i>
   <i type="logical" name="EVENONLYGW"> F  </i>
   <i type="int" name="NKREDLFX">     1</i>
   <i type="int" name="NKREDLFY">     1</i>
   <i type="int" name="NKREDLFZ">     1</i>
   <i type="int" name="MAXMEM">  1800</i>
   <i type="int" name="TELESCOPE">     0</i>
   <i type="int" name="TAUPAR">     1</i>
   <i type="int" name="OMEGAPAR">    -1</i>
   <i name="LAMBDA">      1.00000000</i>
  </separator>
  <separator name="External order field" >
   <i name="OFIELD_KAPPA">      0.00000000</i>
   <v name="OFIELD_K">      0.00000000      0.00000000      0.00000000</v>
   <i name="OFIELD_Q6_NEAR">      0.00000000</i>
   <i name="OFIELD_Q6_FAR">      0.00000000</i>
   <i name="OFIELD_A">      0.00000000</i>
  </separator>
 </parameters>
 <atominfo>
  <atoms>       4 </atoms>
  <types>       1 </types>
  <array name="atoms" >
   <dimension dim="1">ion</dimension>
   <field type="string">element</field>
   <field type="int">atomtype</field>
   <set>
    <rc><c>Ga</c><c>   1</c></rc>
    <rc><c>Ga</c><c>   1</c></rc>
    <rc><c>Ga</c><c>   1</c></rc>
    <rc><c>Ga</c><c>   1</c></rc>
   </set>
  </array>
  <array name="atomtypes" >
   <dimension dim="1">type</dimension>
   <field type="int">atomspertype</field>
   <field type="string">element</field>
   <field>mass</field>
   <field>valence</field>
   <field type="string">pseudopotential</field>
   <set>
    <rc><c>   4</c><c>Ga</c><c>     69.72300000</c><c>      3.00000000</c><c> PAW_PBE Ga 08Apr2002                   </c></rc>
   </set>
  </array>
 </atominfo>
 <structure name="initialpos" >
  <crystal>
   <varray name="basis" >
    <v>       4.35155188       0.01064991       0.00000000 </v>
    <v>      -2.09701412       3.81295742       0.00000000 </v>
    <v>       0.00000000       0.00000000       4.40600814 </v>
   </varray>
   <i name="volume">     73.20412919 </i>
   <varray name="rec_basis" >
    <v>       0.22949418       0.12621503       0.00000000 </v>
    <v>      -0.00064100       0.26191109       0.00000000 </v>
    <v>       0.00000000       0.00000000       0.22696281 </v>
   </varray>
  </crystal>
  <varray name="positions" >
   <v>       0.15604272       0.84395728       0.91665406 </v>
   <v>       0.34395728       0.65604272       0.41665406 </v>
   <v>       0.84395728       0.15604272       0.08334594 </v>
   <v>       0.65604272       0.34395728       0.58334594 </v>
  </varray>
 </structure>
 <calculation>
  <scstep>
   <time name="dav">    0.14    0.19</time>
   <time name="total">    0.19    0.25</time>
   <energy>
    <i name="alphaZ">     38.98778104 </i>
    <i name="ewald">   -273.94013981 </i>
    <i name="hartreedc">     -6.09296789 </i>
    <i name="XCdc">    -75.80287726 </i>
    <i name="pawpsdc">    221.34585397 </i>
    <i name="pawaedc">   -127.93706176 </i>
    <i name="eentropy">      0.00000000 </i>
    <i name="bandstr">    -23.74900692 </i>
    <i name="atom">    235.47460105 </i>
    <i name="e_fr_energy">    -11.71381758 </i>
    <i name="e_wo_entrp">    -11.71381758 </i>
    <i name="e_0_energy">    -11.71381758 </i>
   </energy>
  </scstep>
  <scstep>
   <time name="diag">    0.04    0.04</time>
   <time name="diis">    0.04    0.04</time>
   <time name="orth">    0.00    0.00</time>
   <time name="total">    0.11    0.14</time>
   <energy>
    <i name="e_fr_energy">    -11.72940728 </i>
    <i name="e_wo_entrp">    -11.72940728 </i>
    <i name="e_0_energy">    -11.72940728 </i>
   </energy>
  </scstep>
  <scstep>
   <time name="diag">    0.02    0.02</time>
   <time name="diis">    0.05    0.05</time>
   <time name="orth">    0.00    0.00</time>
   <time name="total">    0.10    0.11</time>
   <energy>
    <i name="e_fr_energy">    -11.70869708 </i>
    <i name="e_wo_entrp">    -11.70869708 </i>
    <i name="e_0_energy">    -11.70869708 </i>
   </energy>
  </scstep>
  <scstep>
   <time name="diag">    0.02    0.02</time>
   <time name="diis">    0.06    0.06</time>
   <time name="orth">    0.00    0.00</time>
   <time name="total">    0.10    0.11</time>
   <energy>
    <i name="e_fr_energy">    -11.70731950 </i>
    <i name="e_wo_entrp">    -11.70731950 </i>
    <i name="e_0_energy">    -11.70731950 </i>
   </energy>
  </scstep>
  <scstep>
   <time name="diag">    0.02    0.02</time>
   <time name="diis">    0.05    0.05</time>
   <time name="orth">    0.00    0.00</time>
   <time name="total">    0.09    0.10</time>
   <energy>
    <i name="alphaZ">     38.98778104 </i>
    <i name="ewald">   -273.94013981 </i>
    <i name="hartreedc">     -5.79908434 </i>
    <i name="XCdc">    -75.56550843 </i>
    <i name="pawpsdc">    218.70304717 </i>
    <i name="pawaedc">   -124.82498059 </i>
    <i name="eentropy">      0.00000000 </i>
    <i name="bandstr">    -24.74303342 </i>
    <i name="atom">    235.47460105 </i>
    <i name="e_fr_energy">    -11.70731734 </i>
    <i name="e_wo_entrp">    -11.70731734 </i>
    <i name="e_0_energy">    -11.70731734 </i>
   </energy>
  </scstep>
  <structure>
   <crystal>
    <varray name="basis" >
     <v>       4.35155188       0.01064991       0.00000000 </v>
     <v>      -2.09701412       3.81295742       0.00000000 </v>
     <v>       0.00000000       0.00000000       4.40600814 </v>
    </varray>
    <i name="volume">     73.20412919 </i>
    <varray name="rec_basis" >
     <v>       0.22949418       0.12621503       0.00000000 </v>
     <v>      -0.00064100       0.26191109       0.00000000 </v>
     <v>       0.00000000       0.00000000       0.22696281 </v>
    </varray>
   </crystal>
   <varray name="positions" >
    <v>       0.15604272       0.84395728       0.91665406 </v>
    <v>       0.34395728       0.65604272       0.41665406 </v>
    <v>       0.84395728       0.15604272       0.08334594 </v>
    <v>       0.65604272       0.34395728       0.58334594 </v>
   </varray>
  </structure>
  <varray name="forces" >
   <v>      -0.37458764       0.22302806       0.37861314 </v>
   <v>       0.37644959      -0.21980224       0.37871661 </v>
   <v>       0.37458764      -0.22302806      -0.37861314 </v>
   <v>      -0.37644959       0.21980224      -0.37871661 </v>
  </varray>
  <varray name="stress" >
   <v>      83.71171249      31.82195435       0.02439284 </v>
   <v>      31.82195414     118.91495106       0.00970511 </v>
   <v>       0.02439270       0.00970502     -26.77386546 </v>
  </varray>
  <energy>
   <i name="e_fr_energy">    -11.70731734 </i>
   <i name="e_wo_entrp">    -11.70731734 </i>
   <i name="e_0_energy">      0.00000000 </i>
  </energy>
  <time name="totalsc">    1.55    1.73</time>
  <eigenvalues>
   <array>
    <dimension dim="1">band</dimension>
    <dimension dim="2">kpoint</dimension>
    <dimension dim="3">spin</dimension>
    <field>eigene</field>
    <field>occ</field>
    <set>
     <set comment="spin 1">
      <set comment="kpoint 1">
       <r>   -6.4002    1.0000 </r>
       <r>   -4.6326    1.0000 </r>
       <r>   -3.2431    1.0000 </r>
       <r>   -1.5366    1.0000 </r>
       <r>   -0.2286    1.0000 </r>
       <r>    1.5633    1.0000 </r>
       <r>    4.7975    0.0000 </r>
       <r>    5.6407    0.0000 </r>
       <r>    6.9702    0.0000 </r>
       <r>    7.7238    0.0000 </r>
       <r>    8.4011    0.0000 </r>
       <r>    9.5634    0.0000 </r>
       <r>    9.7529    0.0000 </r>
       <r>   11.2466    0.0000 </r>
       <r>   11.5498    0.0000 </r>
       <r>   12.7555    0.0000 </r>
       <r>   14.2175    0.0000 </r>
       <r>   15.6159    0.0000 </r>
       <r>   15.6599    0.0000 </r>
       <r>   17.6556    0.0000 </r>
       <r>   17.8270    0.0000 </r>
       <r>   18.8642    0.0000 </r>
       <r>   19.0234    0.0000 </r>
       <r>   19.5128    0.0000 </r>
      </set>
      <set comment="kpoint 2">
       <r>   -7.7351    1.0000 </r>
       <r>   -3.9698    1.0000 </r>
       <r>   -1.5786    1.0000 </r>
       <r>   -0.1304    1.0000 </r>
       <r>    0.2436    1.0000 </r>
       <r>    2.8948    0.9957 </r>
       <r>    3.6369    0.0043 </r>
       <r>    4.0679    0.0000 </r>
       <r>    4.7720    0.0000 </r>
       <r>    7.2468    0.0000 </r>
       <r>    7.3780    0.0000 </r>
       <r>    8.7903    0.0000 </r>
       <r>   10.1971    0.0000 </r>
       <r>   11.0218    0.0000 </r>
       <r>   11.8019    0.0000 </r>
       <r>   12.3231    0.0000 </r>
       <r>   13.0104    0.0000 </r>
       <r>   13.9844    0.0000 </r>
       <r>   16.8102    0.0000 </r>
       <r>   17.2758    0.0000 </r>
       <r>   17.8268    0.0000 </r>
       <r>   18.4541    0.0000 </r>
       <r>   18.4693    0.0000 </r>
       <r>   19.7237    0.0000 </r>
      </set>
      <set comment="kpoint 3">
       <r>   -7.7351    1.0000 </r>
       <r>   -3.9697    1.0000 </r>
       <r>   -1.5789    1.0000 </r>
       <r>   -0.1301    1.0000 </r>
       <r>    0.2437    1.0000 </r>
       <r>    2.8948    0.9957 </r>
       <r>    3.6367    0.0043 </r>
       <r>    4.0678    0.0000 </r>
       <r>    4.7721    0.0000 </r>
       <r>    7.2464    0.0000 </r>
       <r>    7.3783    0.0000 </r>
       <r>    8.7907    0.0000 </r>
       <r>   10.1970    0.0000 </r>
       <r>   11.0217    0.0000 </r>
       <r>   11.8014    0.0000 </r>
       <r>   12.3235    0.0000 </r>
       <r>   13.0102    0.0000 </r>
       <r>   13.9850    0.0000 </r>
       <r>   16.8102    0.0000 </r>
       <r>   17.2757    0.0000 </r>
       <r>   17.8269    0.0000 </r>
       <r>   18.4542    0.0000 </r>
       <r>   18.4689    0.0000 </r>
       <r>   19.7236    0.0000 </r>
      </set>
      <set comment="kpoint 4">
       <r>   -6.4002    1.0000 </r>
       <r>   -4.6326    1.0000 </r>
       <r>   -3.2431    1.0000 </r>
       <r>   -1.5366    1.0000 </r>
       <r>   -0.2286    1.0000 </r>
       <r>    1.5634    0.9957 </r>
       <r>    4.7975    0.0043 </r>
       <r>    5.6405    0.0000 </r>
       <r>    6.9703    0.0000 </r>
       <r>    7.7236    0.0000 </r>
       <r>    8.4009    0.0000 </r>
       <r>    9.5636    0.0000 </r>
       <r>    9.7528    0.0000 </r>
       <r>   11.2467    0.0000 </r>
       <r>   11.5500    0.0000 </r>
       <r>   12.7555    0.0000 </r>
       <r>   14.2174    0.0000 </r>
       <r>   15.6156    0.0000 </r>
       <r>   15.6597    0.0000 </r>
       <r>   17.6558    0.0000 </r>
       <r>   17.8274    0.0000 </r>
       <r>   18.8753    0.0000 </r>
       <r>   19.0398    0.0000 </r>
       <r>   19.5208    0.0000 </r>
      </set>
     </set>
     <set comment="spin 2">
      <set comment="kpoint 1">
       <r>   -6.4002    1.0000 </r>
       <r>   -4.6326    1.0000 </r>
       <r>   -3.2431    1.0000 </r>
       <r>   -1.5366    1.0000 </r>
       <r>   -0.2286    1.0000 </r>
       <r>    1.5633    1.0000 </r>
       <r>    4.7975    0.0000 </r>
       <r>    5.6407    0.0000 </r>
       <r>    6.9702    0.0000 </r>
       <r>    7.7238    0.0000 </r>
       <r>    8.4011    0.0000 </r>
       <r>    9.5634    0.0000 </r>
       <r>    9.7529    0.0000 </r>
       <r>   11.2466    0.0000 </r>
       <r>   11.5498    0.0000 </r>
       <r>   12.7555    0.0000 </r>
       <r>   14.2175    0.0000 </r>
       <r>   15.6159    0.0000 </r>
       <r>   15.6599    0.0000 </r>
       <r>   17.6556    0.0000 </r>
       <r>   17.8270    0.0000 </r>
       <r>   18.8642    0.0000 </r>
       <r>   19.0234    0.0000 </r>
       <r>   19.5128    0.0000 </r>
      </set>
      <set comment="kpoint 2">
       <r>   -7.7351    1.0000 </r>
       <r>   -3.9698    1.0000 </r>
       <r>   -1.5786    1.0000 </r>
       <r>   -0.1304    1.0000 </r>
       <r>    0.2436    1.0000 </r>
       <r>    2.8948    0.9957 </r>
       <r>    3.6369    0.0043 </r>
       <r>    4.0679    0.0000 </r>
       <r>    4.7720    0.0000 </r>
       <r>    7.2468    0.0000 </r>
       <r>    7.3780    0.0000 </r>
       <r>    8.7903    0.0000 </r>
       <r>   10.1971    0.0000 </r>
       <r>   11.0218    0.0000 </r>
       <r>   11.8019    0.0000 </r>
       <r>   12.3231    0.0000 </r>
       <r>   13.0104    0.0000 </r>
       <r>   13.9844    0.0000 </r>
       <r>   16.8102    0.0000 </r>
       <r>   17.2758    0.0000 </r>
       <r>   17.8268    0.0000 </r>
       <r>   18.4541    0.0000 </r>
       <r>   18.4693    0.0000 </r>
       <r>   19.7237    0.0000 </r>
      </set>
      <set comment="kpoint 3">
       <r>   -7.7351    1.0000 </r>
       <r>   -3.9697    1.0000 </r>
       <r>   -1.5789    1.0000 </r>
       <r>   -0.1301    1.0000 </r>
       <r>    0.2437    1.0000 </r>
       <r>    2.8948    0.9957 </r>
       <r>    3.6367    0.0043 </r>
       <r>    4.0678    0.0000 </r>
       <r>    4.7721    0.0000 </r>
       <r>    7.2464    0.0000 </r>
       <r>    7.3783    0.0000 </r>
       <r>    8.7907    0.0000 </r>
       <r>   10.1970    0.0000 </r>
       <r>   11.0217    0.0000 </r>
       <r>   11.8014    0.0000 </r>
       <r>   12.3235    0.0000 </r>
       <r>   13.0102    0.0000 </r>
       <r>   13.9850    0.0000 </r>
       <r>   16.8102    0.0000 </r>
       <r>   17.2757    0.0000 </r>
       <r>   17.8269    0.0000 </r>
       <r>   18.4542    0.0000 </r>
       <r>   18.4689    0.0000 </r>
       <r>   19.7236    0.0000 </r>
      </set>
      <set comment="kpoint 4">
       <r>   -6.4002    1.0000 </r>
       <r>   -4.6326    1.0000 </r>
       <r>   -3.2431    1.0000 </r>
       <r>   -1.5366    1.0000 </r>
       <r>   -0.2286    1.0000 </r>
       <r>    1.5634    0.9957 </r>
       <r>    4.7975    0.0043 </r>
       <r>    5.6405    0.0000 </r>
       <r>    6.9703    0.0000 </r>
       <r>    7.7236    0.0000 </r>
       <r>    8.4009    0.0000 </r>
       <r>    9.5636    0.0000 </r>
       <r>    9.7528    0.0000 </r>
       <r>   11.2467    0.0000 </r>
       <r>   11.5500    0.0000 </r>
       <r>   12.7555    0.0000 </r>
       <r>   14.2174    0.0000 </r>
       <r>   15.6156    0.0000 </r>
       <r>   15.6597    0.0000 </r>
       <r>   17.6558    0.0000 </r>
       <r>   17.8274    0.0000 </r>
       <r>   18.8753    0.0000 </r>
       <r>   19.0398    0.0000 </r>
       <r>   19.5208    0.0000 </r>
      </set>
     </set>
    </set>
   </array>
  </eigenvalues>
  <separator name="orbital magnetization" >
   <v name="MAGDIPOLOUT">      0.00000000      0.00000000      0.00000000</v>
  </separator>
  <dos>
   <i name="efermi">      3.26676212 </i>
   <total>
    <array>
     <dimension dim="1">gridpoints</dimension>
     <dimension dim="2">spin</dimension>
     <field>energy</field>
     <field>total</field>
     <field>integrated</field>
     <set>
      <set comment="spin 1">
       <r>    -9.1081     0.0000     0.0000 </r>
       <r>    -9.0074     0.0000     0.0000 </r>
       <r>    -8.9067     0.0000     0.0000 </r>
       <r>    -8.8060     0.0000     0.0000 </r>
       <r>    -8.7054     0.0000     0.0000 </r>
       <r>    -8.6047     0.0000     0.0000 </r>
       <r>    -8.5040     0.0000     0.0000 </r>
       <r>    -8.4033     0.0000     0.0000 </r>
       <r>    -8.3026     0.0000     0.0000 </r>
       <r>    -8.2019     0.0000     0.0000 </r>
       <r>    -8.1013     0.0000     0.0000 </r>
       <r>    -8.0006     0.0000     0.0000 </r>
       <r>    -7.8999     0.0000     0.0000 </r>
       <r>    -7.7992     0.0000     0.0000 </r>
       <r>    -7.6985     0.0000     0.0000 </r>
       <r>    -7.5978     0.0000     0.0000 </r>
       <r>    -7.4972     0.0000     0.0000 </r>
       <r>    -7.3965     0.0000     0.0000 </r>
       <r>    -7.2958     0.0000     0.0000 </r>
       <r>    -7.1951     0.0000     0.0000 </r>
       <r>    -7.0944     0.0000     0.0000 </r>
       <r>    -6.9938     0.0000     0.0000 </r>
       <r>    -6.8931     0.0000     0.0000 </r>
       <r>    -6.7924     0.0000     0.0000 </r>
       <r>    -6.6917     0.0000     0.0000 </r>
       <r>    -6.5910     0.0000     0.0000 </r>
       <r>    -6.4903     0.0000     0.0000 </r>
       <r>    -6.3897     0.0000     0.0000 </r>
       <r>    -6.2890     0.0000     0.0000 </r>
       <r>    -6.1883     0.0000     0.0000 </r>
       <r>    -6.0876     0.0000     0.0000 </r>
       <r>    -5.9869     0.0000     0.0000 </r>
       <r>    -5.8862     0.0000     0.0000 </r>
       <r>    -5.7856     0.0000     0.0000 </r>
       <r>    -5.6849     0.0000     0.0000 </r>
       <r>    -5.5842     0.0000     0.0000 </r>
       <r>    -5.4835     0.0000     0.0000 </r>
       <r>    -5.3828     0.0000     0.0000 </r>
       <r>    -5.2822     0.0000     0.0000 </r>
       <r>    -5.1815     0.0000     0.0000 </r>
       <r>    -5.0808     0.0000     0.0000 </r>
       <r>    -4.9801     0.0000     0.0000 </r>
       <r>    -4.8794     0.0000     0.0000 </r>
       <r>    -4.7787     0.0000     0.0000 </r>
       <r>    -4.6781     0.0000     0.0000 </r>
       <r>    -4.5774     0.0000     0.0000 </r>
       <r>    -4.4767     0.0000     0.0000 </r>
       <r>    -4.3760     0.0000     0.0000 </r>
       <r>    -4.2753     0.0000     0.0000 </r>
       <r>    -4.1746     0.0000     0.0000 </r>
       <r>    -4.0740     0.0000     0.0000 </r>
       <r>    -3.9733     0.0000     0.0000 </r>
       <r>    -3.8726     0.0000     0.0000 </r>
       <r>    -3.7719     0.0000     0.0000 </r>
       <r>    -3.6712     0.0000     0.0000 </r>
       <r>    -3.5706     0.0000     0.0000 </r>
       <r>    -3.4699     0.0000     0.0000 </r>
       <r>    -3.3692     0.0000     0.0000 </r>
       <r>    -3.2685     0.0000     0.0000 </r>
       <r>    -3.1678     0.0000     0.0000 </r>
       <r>    -3.0671     0.0000     0.0000 </r>
       <r>    -2.9665     0.0000     0.0000 </r>
       <r>    -2.8658     0.0000     0.0000 </r>
       <r>    -2.7651     0.0000     0.0000 </r>
       <r>    -2.6644     0.0000     0.0000 </r>
       <r>    -2.5637     0.0000     0.0000 </r>
       <r>    -2.4630     0.0000     0.0000 </r>
       <r>    -2.3624     0.0000     0.0000 </r>
       <r>    -2.2617     0.0000     0.0000 </r>
       <r>    -2.1610     0.0000     0.0000 </r>
       <r>    -2.0603     0.0000     0.0000 </r>
       <r>    -1.9596     0.0000     0.0000 </r>
       <r>    -1.8590     0.0000     0.0000 </r>
       <r>    -1.7583     0.0000     0.0000 </r>
       <r>    -1.6576     0.0000     0.0000 </r>
       <r>    -1.5569     0.0000     0.0000 </r>
       <r>    -1.4562     0.0000     0.0000 </r>
       <r>    -1.3555     0.0000     0.0000 </r>
       <r>    -1.2549     0.0000     0.0000 </r>
       <r>    -1.1542     0.0000     0.0000 </r>
       <r>    -1.0535     0.0000     0.0000 </r>
       <r>    -0.9528     0.0000     0.0000 </r>
       <r>    -0.8521     0.0000     0.0000 </r>
       <r>    -0.7514     0.0000     0.0000 </r>
       <r>    -0.6508     0.0000     0.0000 </r>
       <r>    -0.5501     0.0000     0.0000 </r>
       <r>    -0.4494     0.0000     0.0000 </r>
       <r>    -0.3487     0.0000     0.0000 </r>
       <r>    -0.2480     0.0000     0.0000 </r>
       <r>    -0.1473     0.0000     0.0000 </r>
       <r>    -0.0467     0.0000     0.0000 </r>
       <r>     0.0540     0.0000     0.0000 </r>
       <r>     0.1547     0.0000     0.0000 </r>
       <r>     0.2554     0.0000     0.0000 </r>
       <r>     0.3561     0.0000     0.0000 </r>
       <r>     0.4567     0.0000     0.0000 </r>
       <r>     0.5574     0.0000     0.0000 </r>
       <r>     0.6581     0.0000     0.0000 </r>
       <r>     0.7588     0.0000     0.0000 </r>
       <r>     0.8595     0.0000     0.0000 </r>
       <r>     0.9602     0.0000     0.0000 </r>
       <r>     1.0608     0.0000     0.0000 </r>
       <r>     1.1615     0.0000     0.0000 </r>
       <r>     1.2622     0.0000     0.0000 </r>
       <r>     1.3629     0.0000     0.0000 </r>
       <r>     1.4636     0.0000     0.0000 </r>
       <r>     1.5643     0.0000     0.0000 </r>
       <r>     1.6649     0.0000     0.0000 </r>
       <r>     1.7656     0.0000     0.0000 </r>
       <r>     1.8663     0.0000     0.0000 </r>
       <r>     1.9670     0.0000     0.0000 </r>
       <r>     2.0677     0.0000     0.0000 </r>
       <r>     2.1683     0.0000     0.0000 </r>
       <r>     2.2690     0.0000     0.0000 </r>
       <r>     2.3697     0.0000     0.0000 </r>
       <r>     2.4704     0.0000     0.0000 </r>
       <r>     2.5711     0.0000     0.0000 </r>
       <r>     2.6718     0.0000     0.0000 </r>
       <r>     2.7724     0.0000     0.0000 </r>
       <r>     2.8731     0.0000     0.0000 </r>
       <r>     2.9738     0.0000     0.0000 </r>
       <r>     3.0745     0.0000     0.0000 </r>
       <r>     3.1752     0.0000     0.0000 </r>
       <r>     3.2759     0.0000     0.0000 </r>
       <r>     3.3765     0.0000     0.0000 </r>
       <r>     3.4772     0.0000     0.0000 </r>
       <r>     3.5779     0.0000     0.0000 </r>
       <r>     3.6786     0.0000     0.0000 </r>
       <r>     3.7793     0.0000     0.0000 </r>
       <r>     3.8799     0.0000     0.0000 </r>
       <r>     3.9806     0.0000     0.0000 </r>
       <r>     4.0813     0.0000     0.0000 </r>
       <r>     4.1820     0.0000     0.0000 </r>
       <r>     4.2827     0.0000     0.0000 </r>
       <r>     4.3834     0.0000     0.0000 </r>
       <r>     4.4840     0.0000     0.0000 </r>
       <r>     4.5847     0.0000     0.0000 </r>
       <r>     4.6854     0.0000     0.0000 </r>
       <r>     4.7861     0.0000     0.0000 </r>
       <r>     4.8868     0.0000     0.0000 </r>
       <r>     4.9875     0.0000     0.0000 </r>
       <r>     5.0881     0.0000     0.0000 </r>
       <r>     5.1888     0.0000     0.0000 </r>
       <r>     5.2895     0.0000     0.0000 </r>
       <r>     5.3902     0.0000     0.0000 </r>
       <r>     5.4909     0.0000     0.0000 </r>
       <r>     5.5915     0.0000     0.0000 </r>
       <r>     5.6922     0.0000     0.0000 </r>
       <r>     5.7929     0.0000     0.0000 </r>
       <r>     5.8936     0.0000     0.0000 </r>
       <r>     5.9943     0.0000     0.0000 </r>
       <r>     6.0950     0.0000     0.0000 </r>
       <r>     6.1956     0.0000     0.0000 </r>
       <r>     6.2963     0.0000     0.0000 </r>
       <r>     6.3970     0.0000     0.0000 </r>
       <r>     6.4977     0.0000     0.0000 </r>
       <r>     6.5984     0.0000     0.0000 </r>
       <r>     6.6991     0.0000     0.0000 </r>
       <r>     6.7997     0.0000     0.0000 </r>
       <r>     6.9004     0.0000     0.0000 </r>
       <r>     7.0011     0.0000     0.0000 </r>
       <r>     7.1018     0.0000     0.0000 </r>
       <r>     7.2025     0.0000     0.0000 </r>
       <r>     7.3031     0.0000     0.0000 </r>
       <r>     7.4038     0.0000     0.0000 </r>
       <r>     7.5045     0.0000     0.0000 </r>
       <r>     7.6052     0.0000     0.0000 </r>
       <r>     7.7059     0.0000     0.0000 </r>
       <r>     7.8066     0.0000     0.0000 </r>
       <r>     7.9072     0.0000     0.0000 </r>
       <r>     8.0079     0.0000     0.0000 </r>
       <r>     8.1086     0.0000     0.0000 </r>
       <r>     8.2093     0.0000     0.0000 </r>
       <r>     8.3100     0.0000     0.0000 </r>
       <r>     8.4107     0.0000     0.0000 </r>
       <r>     8.5113     0.0000     0.0000 </r>
       <r>     8.6120     0.0000     0.0000 </r>
       <r>     8.7127     0.0000     0.0000 </r>
       <r>     8.8134     0.0000     0.0000 </r>
       <r>     8.9141     0.0000     0.0000 </r>
       <r>     9.0147     0.0000     0.0000 </r>
       <r>     9.1154     0.0000     0.0000 </r>
       <r>     9.2161     0.0000     0.0000 </r>
       <r>     9.3168     0.0000     0.0000 </r>
       <r>     9.4175     0.0000     0.0000 </r>
       <r>     9.5182     0.0000     0.0000 </r>
       <r>     9.6188     0.0000     0.0000 </r>
       <r>     9.7195     0.0000     0.0000 </r>
       <r>     9.8202     0.0000     0.0000 </r>
       <r>     9.9209     0.0000     0.0000 </r>
       <r>    10.0216     0.0000     0.0000 </r>
       <r>    10.1223     0.0000     0.0000 </r>
       <r>    10.2229     0.0000     0.0000 </r>
       <r>    10.3236     0.0000     0.0000 </r>
       <r>    10.4243     0.0000     0.0000 </r>
       <r>    10.5250     0.0000     0.0000 </r>
       <r>    10.6257     0.0000     0.0000 </r>
       <r>    10.7263     0.0000     0.0000 </r>
       <r>    10.8270     0.0000     0.0000 </r>
       <r>    10.9277     0.0000     0.0000 </r>
       <r>    11.0284     0.0000     0.0000 </r>
       <r>    11.1291     0.0000     0.0000 </r>
       <r>    11.2298     0.0000     0.0000 </r>
       <r>    11.3304     0.0000     0.0000 </r>
       <r>    11.4311     0.0000     0.0000 </r>
       <r>    11.5318     0.0000     0.0000 </r>
       <r>    11.6325     0.0000     0.0000 </r>
       <r>    11.7332     0.0000     0.0000 </r>
       <r>    11.8339     0.0000     0.0000 </r>
       <r>    11.9345     0.0000     0.0000 </r>
       <r>    12.0352     0.0000     0.0000 </r>
       <r>    12.1359     0.0000     0.0000 </r>
       <r>    12.2366     0.0000     0.0000 </r>
       <r>    12.3373     0.0000     0.0000 </r>
       <r>    12.4379     0.0000     0.0000 </r>
       <r>    12.5386     0.0000     0.0000 </r>
       <r>    12.6393     0.0000     0.0000 </r>
       <r>    12.7400     0.0000     0.0000 </r>
       <r>    12.8407     0.0000     0.0000 </r>
       <r>    12.9414     0.0000     0.0000 </r>
       <r>    13.0420     0.0000     0.0000 </r>
       <r>    13.1427     0.0000     0.0000 </r>
       <r>    13.2434     0.0000     0.0000 </r>
       <r>    13.3441     0.0000     0.0000 </r>
       <r>    13.4448     0.0000     0.0000 </r>
       <r>    13.5455     0.0000     0.0000 </r>
       <r>    13.6461     0.0000     0.0000 </r>
       <r>    13.7468     0.0000     0.0000 </r>
       <r>    13.8475     0.0000     0.0000 </r>
       <r>    13.9482     0.0000     0.0000 </r>
       <r>    14.0489     0.0000     0.0000 </r>
       <r>    14.1495     0.0000     0.0000 </r>
       <r>    14.2502     0.0000     0.0000 </r>
       <r>    14.3509     0.0000     0.0000 </r>
       <r>    14.4516     0.0000     0.0000 </r>
       <r>    14.5523     0.0000     0.0000 </r>
       <r>    14.6530     0.0000     0.0000 </r>
       <r>    14.7536     0.0000     0.0000 </r>
       <r>    14.8543     0.0000     0.0000 </r>
       <r>    14.9550     0.0000     0.0000 </r>
       <r>    15.0557     0.0000     0.0000 </r>
       <r>    15.1564     0.0000     0.0000 </r>
       <r>    15.2571     0.0000     0.0000 </r>
       <r>    15.3577     0.0000     0.0000 </r>
       <r>    15.4584     0.0000     0.0000 </r>
       <r>    15.5591     0.0000     0.0000 </r>
       <r>    15.6598     0.0000     0.0000 </r>
       <r>    15.7605     0.0000     0.0000 </r>
       <r>    15.8611     0.0000     0.0000 </r>
       <r>    15.9618     0.0000     0.0000 </r>
       <r>    16.0625     0.0000     0.0000 </r>
       <r>    16.1632     0.0000     0.0000 </r>
       <r>    16.2639     0.0000     0.0000 </r>
       <r>    16.3646     0.0000     0.0000 </r>
       <r>    16.4652     0.0000     0.0000 </r>
       <r>    16.5659     0.0000     0.0000 </r>
       <r>    16.6666     0.0000     0.0000 </r>
       <r>    16.7673     0.0000     0.0000 </r>
       <r>    16.8680     0.0000     0.0000 </r>
       <r>    16.9687     0.0000     0.0000 </r>
       <r>    17.0693     0.0000     0.0000 </r>
       <r>    17.1700     0.0000     0.0000 </r>
       <r>    17.2707     0.0000     0.0000 </r>
       <r>    17.3714     0.0000     0.0000 </r>
       <r>    17.4721     0.0000     0.0000 </r>
       <r>    17.5727     0.0000     0.0000 </r>
       <r>    17.6734     0.0000     0.0000 </r>
       <r>    17.7741     0.0000     0.0000 </r>
       <r>    17.8748     0.0000     0.0000 </r>
       <r>    17.9755     0.0000     0.0000 </r>
       <r>    18.0762     0.0000     0.0000 </r>
       <r>    18.1768     0.0000     0.0000 </r>
       <r>    18.2775     0.0000     0.0000 </r>
       <r>    18.3782     0.0000     0.0000 </r>
       <r>    18.4789     0.0000     0.0000 </r>
       <r>    18.5796     0.0000     0.0000 </r>
       <r>    18.6803     0.0000     0.0000 </r>
       <r>    18.7809     0.0000     0.0000 </r>
       <r>    18.8816     0.0000     0.0000 </r>
       <r>    18.9823     0.0000     0.0000 </r>
       <r>    19.0830     0.0000     0.0000 </r>
       <r>    19.1837     0.0000     0.0000 </r>
       <r>    19.2843     0.0000     0.0000 </r>
       <r>    19.3850     0.0000     0.0000 </r>
       <r>    19.4857     0.0000     0.0000 </r>
       <r>    19.5864     0.0000     0.0000 </r>
       <r>    19.6871     0.0000     0.0000 </r>
       <r>    19.7878     0.0000     0.0000 </r>
       <r>    19.8884     0.0000     0.0000 </r>
       <r>    19.9891     0.0000     0.0000 </r>
       <r>    20.0898     0.0000     0.0000 </r>
       <r>    20.1905     0.0000     0.0000 </r>
       <r>    20.2912     0.0000     0.0000 </r>
       <r>    20.3919     0.0000     0.0000 </r>
       <r>    20.4925     0.0000     0.0000 </r>
       <r>    20.5932     0.0000     0.0000 </r>
       <r>    20.6939     0.0000     0.0000 </r>
       <r>    20.7946     0.0000     0.0000 </r>
       <r>    20.8953     0.0000     0.0000 </r>
       <r>    20.9960     0.0000     0.0000 </r>
       <r>    21.0966     0.0000     0.0000 </r>
      </set>
      <set comment="spin 2">
       <r>    -9.1081     0.0000     0.0000 </r>
       <r>    -9.0074     0.0000     0.0000 </r>
       <r>    -8.9067     0.0000     0.0000 </r>
       <r>    -8.8060     0.0000     0.0000 </r>
       <r>    -8.7054     0.0000     0.0000 </r>
       <r>    -8.6047     0.0000     0.0000 </r>
       <r>    -8.5040     0.0000     0.0000 </r>
       <r>    -8.4033     0.0000     0.0000 </r>
       <r>    -8.3026     0.0000     0.0000 </r>
       <r>    -8.2019     0.0000     0.0000 </r>
       <r>    -8.1013     0.0000     0.0000 </r>
       <r>    -8.0006     0.0000     0.0000 </r>
       <r>    -7.8999     0.0000     0.0000 </r>
       <r>    -7.7992     0.0000     0.0000 </r>
       <r>    -7.6985     0.0000     0.0000 </r>
       <r>    -7.5978     0.0000     0.0000 </r>
       <r>    -7.4972     0.0000     0.0000 </r>
       <r>    -7.3965     0.0000     0.0000 </r>
       <r>    -7.2958     0.0000     0.0000 </r>
       <r>    -7.1951     0.0000     0.0000 </r>
       <r>    -7.0944     0.0000     0.0000 </r>
       <r>    -6.9938     0.0000     0.0000 </r>
       <r>    -6.8931     0.0000     0.0000 </r>
       <r>    -6.7924     0.0000     0.0000 </r>
       <r>    -6.6917     0.0000     0.0000 </r>
       <r>    -6.5910     0.0000     0.0000 </r>
       <r>    -6.4903     0.0000     0.0000 </r>
       <r>    -6.3897     0.0000     0.0000 </r>
       <r>    -6.2890     0.0000     0.0000 </r>
       <r>    -6.1883     0.0000     0.0000 </r>
       <r>    -6.0876     0.0000     0.0000 </r>
       <r>    -5.9869     0.0000     0.0000 </r>
       <r>    -5.8862     0.0000     0.0000 </r>
       <r>    -5.7856     0.0000     0.0000 </r>
       <r>    -5.6849     0.0000     0.0000 </r>
       <r>    -5.5842     0.0000     0.0000 </r>
       <r>    -5.4835     0.0000     0.0000 </r>
       <r>    -5.3828     0.0000     0.0000 </r>
       <r>    -5.2822     0.0000     0.0000 </r>
       <r>    -5.1815     0.0000     0.0000 </r>
       <r>    -5.0808     0.0000     0.0000 </r>
       <r>    -4.9801     0.0000     0.0000 </r>
       <r>    -4.8794     0.0000     0.0000 </r>
       <r>    -4.7787     0.0000     0.0000 </r>
       <r>    -4.6781     0.0000     0.0000 </r>
       <r>    -4.5774     0.0000     0.0000 </r>
       <r>    -4.4767     0.0000     0.0000 </r>
       <r>    -4.3760     0.0000     0.0000 </r>
       <r>    -4.2753     0.0000     0.0000 </r>
       <r>    -4.1746     0.0000     0.0000 </r>
       <r>    -4.0740     0.0000     0.0000 </r>
       <r>    -3.9733     0.0000     0.0000 </r>
       <r>    -3.8726     0.0000     0.0000 </r>
       <r>    -3.7719     0.0000     0.0000 </r>
       <r>    -3.6712     0.0000     0.0000 </r>
       <r>    -3.5706     0.0000     0.0000 </r>
       <r>    -3.4699     0.0000     0.0000 </r>
       <r>    -3.3692     0.0000     0.0000 </r>
       <r>    -3.2685     0.0000     0.0000 </r>
       <r>    -3.1678     0.0000     0.0000 </r>
       <r>    -3.0671     0.0000     0.0000 </r>
       <r>    -2.9665     0.0000     0.0000 </r>
       <r>    -2.8658     0.0000     0.0000 </r>
       <r>    -2.7651     0.0000     0.0000 </r>
       <r>    -2.6644     0.0000     0.0000 </r>
       <r>    -2.5637     0.0000     0.0000 </r>
       <r>    -2.4630     0.0000     0.0000 </r>
       <r>    -2.3624     0.0000     0.0000 </r>
       <r>    -2.2617     0.0000     0.0000 </r>
       <r>    -2.1610     0.0000     0.0000 </r>
       <r>    -2.0603     0.0000     0.0000 </r>
       <r>    -1.9596     0.0000     0.0000 </r>
       <r>    -1.8590     0.0000     0.0000 </r>
       <r>    -1.7583     0.0000     0.0000 </r>
       <r>    -1.6576     0.0000     0.0000 </r>
       <r>    -1.5569     0.0000     0.0000 </r>
       <r>    -1.4562     0.0000     0.0000 </r>
       <r>    -1.3555     0.0000     0.0000 </r>
       <r>    -1.2549     0.0000     0.0000 </r>
       <r>    -1.1542     0.0000     0.0000 </r>
       <r>    -1.0535     0.0000     0.0000 </r>
       <r>    -0.9528     0.0000     0.0000 </r>
       <r>    -0.8521     0.0000     0.0000 </r>
       <r>    -0.7514     0.0000     0.0000 </r>
       <r>    -0.6508     0.0000     0.0000 </r>
       <r>    -0.5501     0.0000     0.0000 </r>
       <r>    -0.4494     0.0000     0.0000 </r>
       <r>    -0.3487     0.0000     0.0000 </r>
       <r>    -0.2480     0.0000     0.0000 </r>
       <r>    -0.1473     0.0000     0.0000 </r>
       <r>    -0.0467     0.0000     0.0000 </r>
       <r>     0.0540     0.0000     0.0000 </r>
       <r>     0.1547     0.0000     0.0000 </r>
       <r>     0.2554     0.0000     0.0000 </r>
       <r>     0.3561     0.0000     0.0000 </r>
       <r>     0.4567     0.0000     0.0000 </r>
       <r>     0.5574     0.0000     0.0000 </r>
       <r>     0.6581     0.0000     0.0000 </r>
       <r>     0.7588     0.0000     0.0000 </r>
       <r>     0.8595     0.0000     0.0000 </r>
       <r>     0.9602     0.0000     0.0000 </r>
       <r>     1.0608     0.0000     0.0000 </r>
       <r>     1.1615     0.0000     0.0000 </r>
       <r>     1.2622     0.0000     0.0000 </r>
       <r>     1.3629     0.0000     0.0000 </r>
       <r>     1.4636     0.0000     0.0000 </r>
       <r>     1.5643     0.0000     0.0000 </r>
       <r>     1.6649     0.0000     0.0000 </r>
       <r>     1.7656     0.0000     0.0000 </r>
       <r>     1.8663     0.0000     0.0000 </r>
       <r>     1.9670     0.0000     0.0000 </r>
       <r>     2.0677     0.0000     0.0000 </r>
       <r>     2.1683     0.0000     0.0000 </r>
       <r>     2.2690     0.0000     0.0000 </r>
       <r>     2.3697     0.0000     0.0000 </r>
       <r>     2.4704     0.0000     0.0000 </r>
       <r>     2.5711     0.0000     0.0000 </r>
       <r>     2.6718     0.0000     0.0000 </r>
       <r>     2.7724     0.0000     0.0000 </r>
       <r>     2.8731     0.0000     0.0000 </r>
       <r>     2.9738     0.0000     0.0000 </r>
       <r>     3.0745     0.0000     0.0000 </r>
       <r>     3.1752     0.0000     0.0000 </r>
       <r>     3.2759     0.0000     0.0000 </r>
       <r>     3.3765     0.0000     0.0000 </r>
       <r>     3.4772     0.0000     0.0000 </r>
       <r>     3.5779     0.0000     0.0000 </r>
       <r>     3.6786     0.0000     0.0000 </r>
       <r>     3.7793     0.0000     0.0000 </r>
       <r>     3.8799     0.0000     0.0000 </r>
       <r>     3.9806     0.0000     0.0000 </r>
       <r>     4.0813     0.0000     0.0000 </r>
       <r>     4.1820     0.0000     0.0000 </r>
       <r>     4.2827     0.0000     0.0000 </r>
       <r>     4.3834     0.0000     0.0000 </r>
       <r>     4.4840     0.0000     0.0000 </r>
       <r>     4.5847     0.0000     0.0000 </r>
       <r>     4.6854     0.0000     0.0000 </r>
       <r>     4.7861     0.0000     0.0000 </r>
       <r>     4.8868     0.0000     0.0000 </r>
       <r>     4.9875     0.0000     0.0000 </r>
       <r>     5.0881     0.0000     0.0000 </r>
       <r>     5.1888     0.0000     0.0000 </r>
       <r>     5.2895     0.0000     0.0000 </r>
       <r>     5.3902     0.0000     0.0000 </r>
       <r>     5.4909     0.0000     0.0000 </r>
       <r>     5.5915     0.0000     0.0000 </r>
       <r>     5.6922     0.0000     0.0000 </r>
       <r>     5.7929     0.0000     0.0000 </r>
       <r>     5.8936     0.0000     0.0000 </r>
       <r>     5.9943     0.0000     0.0000 </r>
       <r>     6.0950     0.0000     0.0000 </r>
       <r>     6.1956     0.0000     0.0000 </r>
       <r>     6.2963     0.0000     0.0000 </r>
       <r>     6.3970     0.0000     0.0000 </r>
       <r>     6.4977     0.0000     0.0000 </r>
       <r>     6.5984     0.0000     0.0000 </r>
       <r>     6.6991     0.0000     0.0000 </r>
       <r>     6.7997     0.0000     0.0000 </r>
       <r>     6.9004     0.0000     0.0000 </r>
       <r>     7.0011     0.0000     0.0000 </r>
       <r>     7.1018     0.0000     0.0000 </r>
       <r>     7.2025     0.0000     0.0000 </r>
       <r>     7.3031     0.0000     0.0000 </r>
       <r>     7.4038     0.0000     0.0000 </r>
       <r>     7.5045     0.0000     0.0000 </r>
       <r>     7.6052     0.0000     0.0000 </r>
       <r>     7.7059     0.0000     0.0000 </r>
       <r>     7.8066     0.0000     0.0000 </r>
       <r>     7.9072     0.0000     0.0000 </r>
       <r>     8.0079     0.0000     0.0000 </r>
       <r>     8.1086     0.0000     0.0000 </r>
       <r>     8.2093     0.0000     0.0000 </r>
       <r>     8.3100     0.0000     0.0000 </r>
       <r>     8.4107     0.0000     0.0000 </r>
       <r>     8.5113     0.0000     0.0000 </r>
       <r>     8.6120     0.0000     0.0000 </r>
       <r>     8.7127     0.0000     0.0000 </r>
       <r>     8.8134     0.0000     0.0000 </r>
       <r>     8.9141     0.0000     0.0000 </r>
       <r>     9.0147     0.0000     0.0000 </r>
       <r>     9.1154     0.0000     0.0000 </r>
       <r>     9.2161     0.0000     0.0000 </r>
       <r>     9.3168     0.0000     0.0000 </r>
       <r>     9.4175     0.0000     0.0000 </r>
       <r>     9.5182     0.0000     0.0000 </r>
       <r>     9.6188     0.0000     0.0000 </r>
       <r>     9.7195     0.0000     0.0000 </r>
       <r>     9.8202     0.0000     0.0000 </r>
       <r>     9.9209     0.0000     0.0000 </r>
       <r>    10.0216     0.0000     0.0000 </r>
       <r>    10.1223     0.0000     0.0000 </r>
       <r>    10.2229     0.0000     0.0000 </r>
       <r>    10.3236     0.0000     0.0000 </r>
       <r>    10.4243     0.0000     0.0000 </r>
       <r>    10.5250     0.0000     0.0000 </r>
       <r>    10.6257     0.0000     0.0000 </r>
       <r>    10.7263     0.0000     0.0000 </r>
       <r>    10.8270     0.0000     0.0000 </r>
       <r>    10.9277     0.0000     0.0000 </r>
       <r>    11.0284     0.0000     0.0000 </r>
       <r>    11.1291     0.0000     0.0000 </r>
       <r>    11.2298     0.0000     0.0000 </r>
       <r>    11.3304     0.0000     0.0000 </r>
       <r>    11.4311     0.0000     0.0000 </r>
       <r>    11.5318     0.0000     0.0000 </r>
       <r>    11.6325     0.0000     0.0000 </r>
       <r>    11.7332     0.0000     0.0000 </r>
       <r>    11.8339     0.0000     0.0000 </r>
       <r>    11.9345     0.0000     0.0000 </r>
       <r>    12.0352     0.0000     0.0000 </r>
       <r>    12.1359     0.0000     0.0000 </r>
       <r>    12.2366     0.0000     0.0000 </r>
       <r>    12.3373     0.0000     0.0000 </r>
       <r>    12.4379     0.0000     0.0000 </r>
       <r>    12.5386     0.0000     0.0000 </r>
       <r>    12.6393     0.0000     0.0000 </r>
       <r>    12.7400     0.0000     0.0000 </r>
       <r>    12.8407     0.0000     0.0000 </r>
       <r>    12.9414     0.0000     0.0000 </r>
       <r>    13.0420     0.0000     0.0000 </r>
       <r>    13.1427     0.0000     0.0000 </r>
       <r>    13.2434     0.0000     0.0000 </r>
       <r>    13.3441     0.0000     0.0000 </r>
       <r>    13.4448     0.0000     0.0000 </r>
       <r>    13.5455     0.0000     0.0000 </r>
       <r>    13.6461     0.0000     0.0000 </r>
       <r>    13.7468     0.0000     0.0000 </r>
       <r>    13.8475     0.0000     0.0000 </r>
       <r>    13.9482     0.0000     0.0000 </r>
       <r>    14.0489     0.0000     0.0000 </r>
       <r>    14.1495     0.0000     0.0000 </r>
       <r>    14.2502     0.0000     0.0000 </r>
       <r>    14.3509     0.0000     0.0000 </r>
       <r>    14.4516     0.0000     0.0000 </r>
       <r>    14.5523     0.0000     0.0000 </r>
       <r>    14.6530     0.0000     0.0000 </r>
       <r>    14.7536     0.0000     0.0000 </r>
       <r>    14.8543     0.0000     0.0000 </r>
       <r>    14.9550     0.0000     0.0000 </r>
       <r>    15.0557     0.0000     0.0000 </r>
       <r>    15.1564     0.0000     0.0000 </r>
       <r>    15.2571     0.0000     0.0000 </r>
       <r>    15.3577     0.0000     0.0000 </r>
       <r>    15.4584     0.0000     0.0000 </r>
       <r>    15.5591     0.0000     0.0000 </r>
       <r>    15.6598     0.0000     0.0000 </r>
       <r>    15.7605     0.0000     0.0000 </r>
       <r>    15.8611     0.0000     0.0000 </r>
       <r>    15.9618     0.0000     0.0000 </r>
       <r>    16.0625     0.0000     0.0000 </r>
       <r>    16.1632     0.0000     0.0000 </r>
       <r>    16.2639     0.0000     0.0000 </r>
       <r>    16.3646     0.0000     0.0000 </r>
       <r>    16.4652     0.0000     0.0000 </r>
       <r>    16.5659     0.0000     0.0000 </r>
       <r>    16.6666     0.0000     0.0000 </r>
       <r>    16.7673     0.0000     0.0000 </r>
       <r>    16.8680     0.0000     0.0000 </r>
       <r>    16.9687     0.0000     0.0000 </r>
       <r>    17.0693     0.0000     0.0000 </r>
       <r>    17.1700     0.0000     0.0000 </r>
       <r>    17.2707     0.0000     0.0000 </r>
       <r>    17.3714     0.0000     0.0000 </r>
       <r>    17.4721     0.0000     0.0000 </r>
       <r>    17.5727     0.0000     0.0000 </r>
       <r>    17.6734     0.0000     0.0000 </r>
       <r>    17.7741     0.0000     0.0000 </r>
       <r>    17.8748     0.0000     0.0000 </r>
       <r>    17.9755     0.0000     0.0000 </r>
       <r>    18.0762     0.0000     0.0000 </r>
       <r>    18.1768     0.0000     0.0000 </r>
       <r>    18.2775     0.0000     0.0000 </r>
       <r>    18.3782     0.0000     0.0000 </r>
       <r>    18.4789     0.0000     0.0000 </r>
       <r>    18.5796     0.0000     0.0000 </r>
       <r>    18.6803     0.0000     0.0000 </r>
       <r>    18.7809     0.0000     0.0000 </r>
       <r>    18.8816     0.0000     0.0000 </r>
       <r>    18.9823     0.0000     0.0000 </r>
       <r>    19.0830     0.0000     0.0000 </r>
       <r>    19.1837     0.0000     0.0000 </r>
       <r>    19.2843     0.0000     0.0000 </r>
       <r>    19.3850     0.0000     0.0000 </r>
       <r>    19.4857     0.0000     0.0000 </r>
       <r>    19.5864     0.0000     0.0000 </r>
       <r>    19.6871     0.0000     0.0000 </r>
       <r>    19.7878     0.0000     0.0000 </r>
       <r>    19.8884     0.0000     0.0000 </r>
       <r>    19.9891     0.0000     0.0000 </r>
       <r>    20.0898     0.0000     0.0000 </r>
       <r>    20.1905     0.0000     0.0000 </r>
       <r>    20.2912     0.0000     0.0000 </r>
       <r>    20.3919     0.0000     0.0000 </r>
       <r>    20.4925     0.0000     0.0000 </r>
       <r>    20.5932     0.0000     0.0000 </r>
       <r>    20.6939     0.0000     0.0000 </r>
       <r>    20.7946     0.0000     0.0000 </r>
       <r>    20.8953     0.0000     0.0000 </r>
       <r>    20.9960     0.0000     0.0000 </r>
       <r>    21.0966     0.0000     0.0000 </r>
      </set>
     </set>
    </array>
   </total>
   <partial>
    <array>
     <dimension dim="1">gridpoints</dimension>
     <dimension dim="2">spin</dimension>
     <dimension dim="3">ion</dimension>
     <field>energy</field>
     <field>  s</field>
     <field> py</field>
     <field> pz</field>
     <field> px</field>
     <field>dxy</field>
     <field>dyz</field>
     <field>dz2</field>
     <field>dxz</field>
     <field>dx2</field>
     <set>
      <set comment="ion 1">
       <set comment="spin 1">
        <r>    -9.1081     0.0000     0.0000     0.0000     0.0000     0.0000     0.0000     0.0000     0.0000     0.0000 </r>
        <r>    -9.0074     0.0000     0.0000     0.0000     0.0000     0.0000     0.0000     0.0000     0.0000     0.0000 </r>
        <r>    -8.9067     0.0000     0.0000     0.0000     0.0000     0.0000     0.0000     0.0000     0.0000     0.0000 </r>
        <r>    -8.8060     0.0000     0.0000     0.0000     0.0000     0.0000     0.0000     0.0000     0.0000     0.0000 </r>
        <r>    -8.7054     0.0000     0.0000     0.0000     0.0000     0.0000     0.0000     0.0000     0.0000     0.0000 </r>
        <r>    -8.6047     0.0000     0.0000     0.0000     0.0000     0.0000     0.0000     0.0000     0.0000     0.0000 </r>
        <r>    -8.5040     0.0000     0.0000     0.0000     0.0000     0.0000     0.0000     0.0000     0.0000     0.0000 </r>
        <r>    -8.4033     0.0000     0.0000     0.0000     0.0000     0.0000     0.0000     0.0000     0.0000     0.0000 </r>
        <r>    -8.3026     0.0000     0.0000     0.0000     0.0000     0.0000     0.0000     0.0000     0.0000     0.0000 </r>
        <r>    -8.2019     0.0000     0.0000     0.0000     0.0000     0.0000     0.0000     0.0000     0.0000     0.0000 </r>
        <r>    -8.1013     0.0000     0.0000     0.0000     0.0000     0.0000     0.0000     0.0000     0.0000     0.0000 </r>
        <r>    -8.0006     0.0000     0.0000     0.0000     0.0000     0.0000     0.0000     0.0000     0.0000     0.0000 </r>
        <r>    -7.8999     0.0000     0.0000     0.0000     0.0000     0.0000     0.0000     0.0000     0.0000     0.0000 </r>
        <r>    -7.7992     0.0000     0.0000     0.0000     0.0000     0.0000     0.0000     0.0000     0.0000     0.0000 </r>
        <r>    -7.6985     0.0000     0.0000     0.0000     0.0000     0.0000     0.0000     0.0000     0.0000     0.0000 </r>
        <r>    -7.5978     0.0000     0.0000     0.0000     0.0000     0.0000     0.0000     0.0000     0.0000     0.0000 </r>
        <r>    -7.4972     0.0000     0.0000     0.0000     0.0000     0.0000     0.0000     0.0000     0.0000     0.0000 </r>
        <r>    -7.3965     0.0000     0.0000     0.0000     0.0000     0.0000     0.0000     0.0000     0.0000     0.0000 </r>
        <r>    -7.2958     0.0000     0.0000     0.0000     0.0000     0.0000     0.0000     0.0000     0.0000     0.0000 </r>
        <r>    -7.1951     0.0000     0.0000     0.0000     0.0000     0.0000     0.0000     0.0000     0.0000     0.0000 </r>
        <r>    -7.0944     0.0000     0.0000     0.0000     0.0000     0.0000     0.0000     0.0000     0.0000     0.0000 </r>
        <r>    -6.9938     0.0000     0.0000     0.0000     0.0000     0.0000     0.0000     0.0000     0.0000     0.0000 </r>
        <r>    -6.8931     0.0000     0.0000     0.0000     0.0000     0.0000     0.0000     0.0000     0.0000     0.0000 </r>
        <r>    -6.7924     0.0000     0.0000     0.0000     0.0000     0.0000     0.0000     0.0000     0.0000     0.0000 </r>
        <r>    -6.6917     0.0000     0.0000     0.0000     0.0000     0.0000     0.0000     0.0000     0.0000     0.0000 </r>
        <r>    -6.5910     0.0000     0.0000     0.0000     0.0000     0.0000     0.0000     0.0000     0.0000     0.0000 </r>
        <r>    -6.4903     0.0000     0.0000     0.0000     0.0000     0.0000     0.0000     0.0000     0.0000     0.0000 </r>
        <r>    -6.3897     0.0000     0.0000     0.0000     0.0000     0.0000     0.0000     0.0000     0.0000     0.0000 </r>
        <r>    -6.2890     0.0000     0.0000     0.0000     0.0000     0.0000     0.0000     0.0000     0.0000     0.0000 </r>
        <r>    -6.1883     0.0000     0.0000     0.0000     0.0000     0.0000     0.0000     0.0000     0.0000     0.0000 </r>
        <r>    -6.0876     0.0000     0.0000     0.0000     0.0000     0.0000     0.0000     0.0000     0.0000     0.0000 </r>
        <r>    -5.9869     0.0000     0.0000     0.0000     0.0000     0.0000     0.0000     0.0000     0.0000     0.0000 </r>
        <r>    -5.8862     0.0000     0.0000     0.0000     0.0000     0.0000     0.0000     0.0000     0.0000     0.0000 </r>
        <r>    -5.7856     0.0000     0.0000     0.0000     0.0000     0.0000     0.0000     0.0000     0.0000     0.0000 </r>
        <r>    -5.6849     0.0000     0.0000     0.0000     0.0000     0.0000     0.0000     0.0000     0.0000     0.0000 </r>
        <r>    -5.5842     0.0000     0.0000     0.0000     0.0000     0.0000     0.0000     0.0000     0.0000     0.0000 </r>
        <r>    -5.4835     0.0000     0.0000     0.0000     0.0000     0.0000     0.0000     0.0000     0.0000     0.0000 </r>
        <r>    -5.3828     0.0000     0.0000     0.0000     0.0000     0.0000     0.0000     0.0000     0.0000     0.0000 </r>
        <r>    -5.2822     0.0000     0.0000     0.0000     0.0000     0.0000     0.0000     0.0000     0.0000     0.0000 </r>
        <r>    -5.1815     0.0000     0.0000     0.0000     0.0000     0.0000     0.0000     0.0000     0.0000     0.0000 </r>
        <r>    -5.0808     0.0000     0.0000     0.0000     0.0000     0.0000     0.0000     0.0000     0.0000     0.0000 </r>
        <r>    -4.9801     0.0000     0.0000     0.0000     0.0000     0.0000     0.0000     0.0000     0.0000     0.0000 </r>
        <r>    -4.8794     0.0000     0.0000     0.0000     0.0000     0.0000     0.0000     0.0000     0.0000     0.0000 </r>
        <r>    -4.7787     0.0000     0.0000     0.0000     0.0000     0.0000     0.0000     0.0000     0.0000     0.0000 </r>
        <r>    -4.6781     0.0000     0.0000     0.0000     0.0000     0.0000     0.0000     0.0000     0.0000     0.0000 </r>
        <r>    -4.5774     0.0000     0.0000     0.0000     0.0000     0.0000     0.0000     0.0000     0.0000     0.0000 </r>
        <r>    -4.4767     0.0000     0.0000     0.0000     0.0000     0.0000     0.0000     0.0000     0.0000     0.0000 </r>
        <r>    -4.3760     0.0000     0.0000     0.0000     0.0000     0.0000     0.0000     0.0000     0.0000     0.0000 </r>
        <r>    -4.2753     0.0000     0.0000     0.0000     0.0000     0.0000     0.0000     0.0000     0.0000     0.0000 </r>
        <r>    -4.1746     0.0000     0.0000     0.0000     0.0000     0.0000     0.0000     0.0000     0.0000     0.0000 </r>
        <r>    -4.0740     0.0000     0.0000     0.0000     0.0000     0.0000     0.0000     0.0000     0.0000     0.0000 </r>
        <r>    -3.9733     0.0000     0.0000     0.0000     0.0000     0.0000     0.0000     0.0000     0.0000     0.0000 </r>
        <r>    -3.8726     0.0000     0.0000     0.0000     0.0000     0.0000     0.0000     0.0000     0.0000     0.0000 </r>
        <r>    -3.7719     0.0000     0.0000     0.0000     0.0000     0.0000     0.0000     0.0000     0.0000     0.0000 </r>
        <r>    -3.6712     0.0000     0.0000     0.0000     0.0000     0.0000     0.0000     0.0000     0.0000     0.0000 </r>
        <r>    -3.5706     0.0000     0.0000     0.0000     0.0000     0.0000     0.0000     0.0000     0.0000     0.0000 </r>
        <r>    -3.4699     0.0000     0.0000     0.0000     0.0000     0.0000     0.0000     0.0000     0.0000     0.0000 </r>
        <r>    -3.3692     0.0000     0.0000     0.0000     0.0000     0.0000     0.0000     0.0000     0.0000     0.0000 </r>
        <r>    -3.2685     0.0000     0.0000     0.0000     0.0000     0.0000     0.0000     0.0000     0.0000     0.0000 </r>
        <r>    -3.1678     0.0000     0.0000     0.0000     0.0000     0.0000     0.0000     0.0000     0.0000     0.0000 </r>
        <r>    -3.0671     0.0000     0.0000     0.0000     0.0000     0.0000     0.0000     0.0000     0.0000     0.0000 </r>
        <r>    -2.9665     0.0000     0.0000     0.0000     0.0000     0.0000     0.0000     0.0000     0.0000     0.0000 </r>
        <r>    -2.8658     0.0000     0.0000     0.0000     0.0000     0.0000     0.0000     0.0000     0.0000     0.0000 </r>
        <r>    -2.7651     0.0000     0.0000     0.0000     0.0000     0.0000     0.0000     0.0000     0.0000     0.0000 </r>
        <r>    -2.6644     0.0000     0.0000     0.0000     0.0000     0.0000     0.0000     0.0000     0.0000     0.0000 </r>
        <r>    -2.5637     0.0000     0.0000     0.0000     0.0000     0.0000     0.0000     0.0000     0.0000     0.0000 </r>
        <r>    -2.4630     0.0000     0.0000     0.0000     0.0000     0.0000     0.0000     0.0000     0.0000     0.0000 </r>
        <r>    -2.3624     0.0000     0.0000     0.0000     0.0000     0.0000     0.0000     0.0000     0.0000     0.0000 </r>
        <r>    -2.2617     0.0000     0.0000     0.0000     0.0000     0.0000     0.0000     0.0000     0.0000     0.0000 </r>
        <r>    -2.1610     0.0000     0.0000     0.0000     0.0000     0.0000     0.0000     0.0000     0.0000     0.0000 </r>
        <r>    -2.0603     0.0000     0.0000     0.0000     0.0000     0.0000     0.0000     0.0000     0.0000     0.0000 </r>
        <r>    -1.9596     0.0000     0.0000     0.0000     0.0000     0.0000     0.0000     0.0000     0.0000     0.0000 </r>
        <r>    -1.8590     0.0000     0.0000     0.0000     0.0000     0.0000     0.0000     0.0000     0.0000     0.0000 </r>
        <r>    -1.7583     0.0000     0.0000     0.0000     0.0000     0.0000     0.0000     0.0000     0.0000     0.0000 </r>
        <r>    -1.6576     0.0000     0.0000     0.0000     0.0000     0.0000     0.0000     0.0000     0.0000     0.0000 </r>
        <r>    -1.5569     0.0000     0.0000     0.0000     0.0000     0.0000     0.0000     0.0000     0.0000     0.0000 </r>
        <r>    -1.4562     0.0000     0.0000     0.0000     0.0000     0.0000     0.0000     0.0000     0.0000     0.0000 </r>
        <r>    -1.3555     0.0000     0.0000     0.0000     0.0000     0.0000     0.0000     0.0000     0.0000     0.0000 </r>
        <r>    -1.2549     0.0000     0.0000     0.0000     0.0000     0.0000     0.0000     0.0000     0.0000     0.0000 </r>
        <r>    -1.1542     0.0000     0.0000     0.0000     0.0000     0.0000     0.0000     0.0000     0.0000     0.0000 </r>
        <r>    -1.0535     0.0000     0.0000     0.0000     0.0000     0.0000     0.0000     0.0000     0.0000     0.0000 </r>
        <r>    -0.9528     0.0000     0.0000     0.0000     0.0000     0.0000     0.0000     0.0000     0.0000     0.0000 </r>
        <r>    -0.8521     0.0000     0.0000     0.0000     0.0000     0.0000     0.0000     0.0000     0.0000     0.0000 </r>
        <r>    -0.7514     0.0000     0.0000     0.0000     0.0000     0.0000     0.0000     0.0000     0.0000     0.0000 </r>
        <r>    -0.6508     0.0000     0.0000     0.0000     0.0000     0.0000     0.0000     0.0000     0.0000     0.0000 </r>
        <r>    -0.5501     0.0000     0.0000     0.0000     0.0000     0.0000     0.0000     0.0000     0.0000     0.0000 </r>
        <r>    -0.4494     0.0000     0.0000     0.0000     0.0000     0.0000     0.0000     0.0000     0.0000     0.0000 </r>
        <r>    -0.3487     0.0000     0.0000     0.0000     0.0000     0.0000     0.0000     0.0000     0.0000     0.0000 </r>
        <r>    -0.2480     0.0000     0.0000     0.0000     0.0000     0.0000     0.0000     0.0000     0.0000     0.0000 </r>
        <r>    -0.1473     0.0000     0.0000     0.0000     0.0000     0.0000     0.0000     0.0000     0.0000     0.0000 </r>
        <r>    -0.0467     0.0000     0.0000     0.0000     0.0000     0.0000     0.0000     0.0000     0.0000     0.0000 </r>
        <r>     0.0540     0.0000     0.0000     0.0000     0.0000     0.0000     0.0000     0.0000     0.0000     0.0000 </r>
        <r>     0.1547     0.0000     0.0000     0.0000     0.0000     0.0000     0.0000     0.0000     0.0000     0.0000 </r>
        <r>     0.2554     0.0000     0.0000     0.0000     0.0000     0.0000     0.0000     0.0000     0.0000     0.0000 </r>
        <r>     0.3561     0.0000     0.0000     0.0000     0.0000     0.0000     0.0000     0.0000     0.0000     0.0000 </r>
        <r>     0.4567     0.0000     0.0000     0.0000     0.0000     0.0000     0.0000     0.0000     0.0000     0.0000 </r>
        <r>     0.5574     0.0000     0.0000     0.0000     0.0000     0.0000     0.0000     0.0000     0.0000     0.0000 </r>
        <r>     0.6581     0.0000     0.0000     0.0000     0.0000     0.0000     0.0000     0.0000     0.0000     0.0000 </r>
        <r>     0.7588     0.0000     0.0000     0.0000     0.0000     0.0000     0.0000     0.0000     0.0000     0.0000 </r>
        <r>     0.8595     0.0000     0.0000     0.0000     0.0000     0.0000     0.0000     0.0000     0.0000     0.0000 </r>
        <r>     0.9602     0.0000     0.0000     0.0000     0.0000     0.0000     0.0000     0.0000     0.0000     0.0000 </r>
        <r>     1.0608     0.0000     0.0000     0.0000     0.0000     0.0000     0.0000     0.0000     0.0000     0.0000 </r>
        <r>     1.1615     0.0000     0.0000     0.0000     0.0000     0.0000     0.0000     0.0000     0.0000     0.0000 </r>
        <r>     1.2622     0.0000     0.0000     0.0000     0.0000     0.0000     0.0000     0.0000     0.0000     0.0000 </r>
        <r>     1.3629     0.0000     0.0000     0.0000     0.0000     0.0000     0.0000     0.0000     0.0000     0.0000 </r>
        <r>     1.4636     0.0000     0.0000     0.0000     0.0000     0.0000     0.0000     0.0000     0.0000     0.0000 </r>
        <r>     1.5643     0.0000     0.0000     0.0000     0.0000     0.0000     0.0000     0.0000     0.0000     0.0000 </r>
        <r>     1.6649     0.0000     0.0000     0.0000     0.0000     0.0000     0.0000     0.0000     0.0000     0.0000 </r>
        <r>     1.7656     0.0000     0.0000     0.0000     0.0000     0.0000     0.0000     0.0000     0.0000     0.0000 </r>
        <r>     1.8663     0.0000     0.0000     0.0000     0.0000     0.0000     0.0000     0.0000     0.0000     0.0000 </r>
        <r>     1.9670     0.0000     0.0000     0.0000     0.0000     0.0000     0.0000     0.0000     0.0000     0.0000 </r>
        <r>     2.0677     0.0000     0.0000     0.0000     0.0000     0.0000     0.0000     0.0000     0.0000     0.0000 </r>
        <r>     2.1683     0.0000     0.0000     0.0000     0.0000     0.0000     0.0000     0.0000     0.0000     0.0000 </r>
        <r>     2.2690     0.0000     0.0000     0.0000     0.0000     0.0000     0.0000     0.0000     0.0000     0.0000 </r>
        <r>     2.3697     0.0000     0.0000     0.0000     0.0000     0.0000     0.0000     0.0000     0.0000     0.0000 </r>
        <r>     2.4704     0.0000     0.0000     0.0000     0.0000     0.0000     0.0000     0.0000     0.0000     0.0000 </r>
        <r>     2.5711     0.0000     0.0000     0.0000     0.0000     0.0000     0.0000     0.0000     0.0000     0.0000 </r>
        <r>     2.6718     0.0000     0.0000     0.0000     0.0000     0.0000     0.0000     0.0000     0.0000     0.0000 </r>
        <r>     2.7724     0.0000     0.0000     0.0000     0.0000     0.0000     0.0000     0.0000     0.0000     0.0000 </r>
        <r>     2.8731     0.0000     0.0000     0.0000     0.0000     0.0000     0.0000     0.0000     0.0000     0.0000 </r>
        <r>     2.9738     0.0000     0.0000     0.0000     0.0000     0.0000     0.0000     0.0000     0.0000     0.0000 </r>
        <r>     3.0745     0.0000     0.0000     0.0000     0.0000     0.0000     0.0000     0.0000     0.0000     0.0000 </r>
        <r>     3.1752     0.0000     0.0000     0.0000     0.0000     0.0000     0.0000     0.0000     0.0000     0.0000 </r>
        <r>     3.2759     0.0000     0.0000     0.0000     0.0000     0.0000     0.0000     0.0000     0.0000     0.0000 </r>
        <r>     3.3765     0.0000     0.0000     0.0000     0.0000     0.0000     0.0000     0.0000     0.0000     0.0000 </r>
        <r>     3.4772     0.0000     0.0000     0.0000     0.0000     0.0000     0.0000     0.0000     0.0000     0.0000 </r>
        <r>     3.5779     0.0000     0.0000     0.0000     0.0000     0.0000     0.0000     0.0000     0.0000     0.0000 </r>
        <r>     3.6786     0.0000     0.0000     0.0000     0.0000     0.0000     0.0000     0.0000     0.0000     0.0000 </r>
        <r>     3.7793     0.0000     0.0000     0.0000     0.0000     0.0000     0.0000     0.0000     0.0000     0.0000 </r>
        <r>     3.8799     0.0000     0.0000     0.0000     0.0000     0.0000     0.0000     0.0000     0.0000     0.0000 </r>
        <r>     3.9806     0.0000     0.0000     0.0000     0.0000     0.0000     0.0000     0.0000     0.0000     0.0000 </r>
        <r>     4.0813     0.0000     0.0000     0.0000     0.0000     0.0000     0.0000     0.0000     0.0000     0.0000 </r>
        <r>     4.1820     0.0000     0.0000     0.0000     0.0000     0.0000     0.0000     0.0000     0.0000     0.0000 </r>
        <r>     4.2827     0.0000     0.0000     0.0000     0.0000     0.0000     0.0000     0.0000     0.0000     0.0000 </r>
        <r>     4.3834     0.0000     0.0000     0.0000     0.0000     0.0000     0.0000     0.0000     0.0000     0.0000 </r>
        <r>     4.4840     0.0000     0.0000     0.0000     0.0000     0.0000     0.0000     0.0000     0.0000     0.0000 </r>
        <r>     4.5847     0.0000     0.0000     0.0000     0.0000     0.0000     0.0000     0.0000     0.0000     0.0000 </r>
        <r>     4.6854     0.0000     0.0000     0.0000     0.0000     0.0000     0.0000     0.0000     0.0000     0.0000 </r>
        <r>     4.7861     0.0000     0.0000     0.0000     0.0000     0.0000     0.0000     0.0000     0.0000     0.0000 </r>
        <r>     4.8868     0.0000     0.0000     0.0000     0.0000     0.0000     0.0000     0.0000     0.0000     0.0000 </r>
        <r>     4.9875     0.0000     0.0000     0.0000     0.0000     0.0000     0.0000     0.0000     0.0000     0.0000 </r>
        <r>     5.0881     0.0000     0.0000     0.0000     0.0000     0.0000     0.0000     0.0000     0.0000     0.0000 </r>
        <r>     5.1888     0.0000     0.0000     0.0000     0.0000     0.0000     0.0000     0.0000     0.0000     0.0000 </r>
        <r>     5.2895     0.0000     0.0000     0.0000     0.0000     0.0000     0.0000     0.0000     0.0000     0.0000 </r>
        <r>     5.3902     0.0000     0.0000     0.0000     0.0000     0.0000     0.0000     0.0000     0.0000     0.0000 </r>
        <r>     5.4909     0.0000     0.0000     0.0000     0.0000     0.0000     0.0000     0.0000     0.0000     0.0000 </r>
        <r>     5.5915     0.0000     0.0000     0.0000     0.0000     0.0000     0.0000     0.0000     0.0000     0.0000 </r>
        <r>     5.6922     0.0000     0.0000     0.0000     0.0000     0.0000     0.0000     0.0000     0.0000     0.0000 </r>
        <r>     5.7929     0.0000     0.0000     0.0000     0.0000     0.0000     0.0000     0.0000     0.0000     0.0000 </r>
        <r>     5.8936     0.0000     0.0000     0.0000     0.0000     0.0000     0.0000     0.0000     0.0000     0.0000 </r>
        <r>     5.9943     0.0000     0.0000     0.0000     0.0000     0.0000     0.0000     0.0000     0.0000     0.0000 </r>
        <r>     6.0950     0.0000     0.0000     0.0000     0.0000     0.0000     0.0000     0.0000     0.0000     0.0000 </r>
        <r>     6.1956     0.0000     0.0000     0.0000     0.0000     0.0000     0.0000     0.0000     0.0000     0.0000 </r>
        <r>     6.2963     0.0000     0.0000     0.0000     0.0000     0.0000     0.0000     0.0000     0.0000     0.0000 </r>
        <r>     6.3970     0.0000     0.0000     0.0000     0.0000     0.0000     0.0000     0.0000     0.0000     0.0000 </r>
        <r>     6.4977     0.0000     0.0000     0.0000     0.0000     0.0000     0.0000     0.0000     0.0000     0.0000 </r>
        <r>     6.5984     0.0000     0.0000     0.0000     0.0000     0.0000     0.0000     0.0000     0.0000     0.0000 </r>
        <r>     6.6991     0.0000     0.0000     0.0000     0.0000     0.0000     0.0000     0.0000     0.0000     0.0000 </r>
        <r>     6.7997     0.0000     0.0000     0.0000     0.0000     0.0000     0.0000     0.0000     0.0000     0.0000 </r>
        <r>     6.9004     0.0000     0.0000     0.0000     0.0000     0.0000     0.0000     0.0000     0.0000     0.0000 </r>
        <r>     7.0011     0.0000     0.0000     0.0000     0.0000     0.0000     0.0000     0.0000     0.0000     0.0000 </r>
        <r>     7.1018     0.0000     0.0000     0.0000     0.0000     0.0000     0.0000     0.0000     0.0000     0.0000 </r>
        <r>     7.2025     0.0000     0.0000     0.0000     0.0000     0.0000     0.0000     0.0000     0.0000     0.0000 </r>
        <r>     7.3031     0.0000     0.0000     0.0000     0.0000     0.0000     0.0000     0.0000     0.0000     0.0000 </r>
        <r>     7.4038     0.0000     0.0000     0.0000     0.0000     0.0000     0.0000     0.0000     0.0000     0.0000 </r>
        <r>     7.5045     0.0000     0.0000     0.0000     0.0000     0.0000     0.0000     0.0000     0.0000     0.0000 </r>
        <r>     7.6052     0.0000     0.0000     0.0000     0.0000     0.0000     0.0000     0.0000     0.0000     0.0000 </r>
        <r>     7.7059     0.0000     0.0000     0.0000     0.0000     0.0000     0.0000     0.0000     0.0000     0.0000 </r>
        <r>     7.8066     0.0000     0.0000     0.0000     0.0000     0.0000     0.0000     0.0000     0.0000     0.0000 </r>
        <r>     7.9072     0.0000     0.0000     0.0000     0.0000     0.0000     0.0000     0.0000     0.0000     0.0000 </r>
        <r>     8.0079     0.0000     0.0000     0.0000     0.0000     0.0000     0.0000     0.0000     0.0000     0.0000 </r>
        <r>     8.1086     0.0000     0.0000     0.0000     0.0000     0.0000     0.0000     0.0000     0.0000     0.0000 </r>
[...]
        <r>  0.1803  0.0026  0.0086  0.0075  0.0004  0.0001  0.0001  0.0002  0.0001 </r>
       </set>
       <set comment="band 2">
        <r>  0.1319  0.0009  0.0489  0.0025  0.0021  0.0006  0.0017  0.0018  0.0006 </r>
        <r>  0.1681  0.0020  0.0483  0.0057  0.0001  0.0009  0.0022  0.0026  0.0000 </r>
        <r>  0.1319  0.0009  0.0489  0.0025  0.0021  0.0006  0.0017  0.0018  0.0006 </r>
        <r>  0.1681  0.0020  0.0483  0.0057  0.0001  0.0009  0.0022  0.0026  0.0000 </r>
       </set>
       <set comment="band 3">
        <r>  0.1069  0.0258  0.0194  0.0741  0.0035  0.0003  0.0027  0.0010  0.0011 </r>
        <r>  0.0669  0.0192  0.0046  0.0553  0.0028  0.0001  0.0002  0.0003  0.0009 </r>
        <r>  0.1069  0.0258  0.0194  0.0741  0.0035  0.0003  0.0027  0.0010  0.0011 </r>
        <r>  0.0669  0.0192  0.0046  0.0553  0.0028  0.0001  0.0002  0.0003  0.0009 </r>
       </set>
       <set comment="band 4">
        <r>  0.1628  0.0059  0.0111  0.0169  0.0047  0.0005  0.0020  0.0015  0.0014 </r>
        <r>  0.1412  0.0096  0.0323  0.0276  0.0101  0.0006  0.0047  0.0018  0.0031 </r>
        <r>  0.1628  0.0059  0.0111  0.0169  0.0047  0.0005  0.0020  0.0015  0.0014 </r>
        <r>  0.1412  0.0096  0.0323  0.0276  0.0101  0.0006  0.0047  0.0018  0.0031 </r>
       </set>
       <set comment="band 5">
        <r>  0.0000  0.1343  0.0000  0.0467  0.0012  0.0032  0.0000  0.0011  0.0040 </r>
        <r>  0.0000  0.1332  0.0000  0.0463  0.0012  0.0035  0.0000  0.0012  0.0041 </r>
        <r>  0.0000  0.1343  0.0000  0.0467  0.0012  0.0032  0.0000  0.0011  0.0040 </r>
        <r>  0.0000  0.1332  0.0000  0.0463  0.0012  0.0035  0.0000  0.0012  0.0041 </r>
       </set>
       <set comment="band 6">
        <r>  0.0031  0.0226  0.0454  0.0649  0.0074  0.0027  0.0067  0.0076  0.0023 </r>
        <r>  0.0094  0.0287  0.0554  0.0827  0.0063  0.0018  0.0060  0.0051  0.0019 </r>
        <r>  0.0031  0.0226  0.0454  0.0649  0.0074  0.0027  0.0067  0.0076  0.0023 </r>
        <r>  0.0094  0.0287  0.0554  0.0827  0.0063  0.0018  0.0060  0.0051  0.0019 </r>
       </set>
       <set comment="band 7">
        <r>  0.0111  0.0065  0.1875  0.0186  0.0053  0.0001  0.0099  0.0004  0.0016 </r>
        <r>  0.0144  0.0021  0.1236  0.0059  0.0076  0.0020  0.0080  0.0058  0.0023 </r>
        <r>  0.0111  0.0065  0.1875  0.0186  0.0053  0.0001  0.0099  0.0004  0.0016 </r>
        <r>  0.0144  0.0021  0.1236  0.0059  0.0076  0.0020  0.0080  0.0058  0.0023 </r>
       </set>
       <set comment="band 8">
        <r>  0.0000  0.1185  0.0000  0.0412  0.0011  0.0206  0.0000  0.0072  0.0037 </r>
        <r>  0.0000  0.1280  0.0000  0.0445  0.0012  0.0191  0.0000  0.0066  0.0039 </r>
        <r>  0.0000  0.1185  0.0000  0.0412  0.0011  0.0206  0.0000  0.0072  0.0037 </r>
        <r>  0.0000  0.1280  0.0000  0.0445  0.0012  0.0191  0.0000  0.0066  0.0039 </r>
       </set>
       <set comment="band 9">
        <r>  0.0921  0.0009  0.0049  0.0027  0.0059  0.0020  0.0036  0.0056  0.0018 </r>
        <r>  0.1698  0.0080  0.0577  0.0231  0.0020  0.0018  0.0016  0.0051  0.0006 </r>
        <r>  0.0921  0.0009  0.0049  0.0027  0.0059  0.0020  0.0036  0.0056  0.0018 </r>
        <r>  0.1698  0.0080  0.0577  0.0231  0.0020  0.0018  0.0016  0.0051  0.0006 </r>
       </set>
       <set comment="band 10">
        <r>  0.0411  0.0254  0.0027  0.0729  0.0037  0.0036  0.0199  0.0104  0.0011 </r>
        <r>  0.0034  0.0167  0.0199  0.0480  0.0033  0.0013  0.0273  0.0037  0.0010 </r>
        <r>  0.0411  0.0254  0.0027  0.0729  0.0037  0.0036  0.0199  0.0104  0.0011 </r>
        <r>  0.0034  0.0167  0.0199  0.0480  0.0033  0.0013  0.0273  0.0037  0.0010 </r>
       </set>
       <set comment="band 11">
        <r>  0.0000  0.0835  0.0000  0.0291  0.0103  0.0109  0.0000  0.0038  0.0337 </r>
        <r>  0.0000  0.0628  0.0000  0.0218  0.0097  0.0121  0.0000  0.0042  0.0316 </r>
        <r>  0.0000  0.0835  0.0000  0.0291  0.0103  0.0109  0.0000  0.0038  0.0337 </r>
        <r>  0.0000  0.0628  0.0000  0.0218  0.0097  0.0121  0.0000  0.0042  0.0316 </r>
       </set>
       <set comment="band 12">
        <r>  0.0674  0.0281  0.0093  0.0809  0.0184  0.0014  0.0103  0.0041  0.0056 </r>
        <r>  0.0187  0.0194  0.0417  0.0557  0.0181  0.0040  0.0114  0.0116  0.0055 </r>
        <r>  0.0674  0.0281  0.0093  0.0809  0.0184  0.0014  0.0103  0.0041  0.0056 </r>
        <r>  0.0187  0.0194  0.0417  0.0557  0.0181  0.0040  0.0114  0.0116  0.0055 </r>
       </set>
       <set comment="band 13">
        <r>  0.0075  0.0039  0.1449  0.0113  0.0093  0.0041  0.0006  0.0119  0.0028 </r>
        <r>  0.0213  0.0098  0.0369  0.0281  0.0002  0.0065  0.0066  0.0188  0.0001 </r>
        <r>  0.0075  0.0039  0.1449  0.0113  0.0093  0.0041  0.0006  0.0119  0.0028 </r>
        <r>  0.0213  0.0098  0.0369  0.0281  0.0002  0.0065  0.0066  0.0188  0.0001 </r>
       </set>
       <set comment="band 14">
        <r>  0.0000  0.0570  0.0000  0.0198  0.0103  0.0197  0.0000  0.0068  0.0338 </r>
        <r>  0.0000  0.0660  0.0000  0.0229  0.0117  0.0210  0.0000  0.0073  0.0384 </r>
        <r>  0.0000  0.0570  0.0000  0.0198  0.0103  0.0197  0.0000  0.0068  0.0338 </r>
        <r>  0.0000  0.0660  0.0000  0.0229  0.0117  0.0210  0.0000  0.0073  0.0384 </r>
       </set>
       <set comment="band 15">
        <r>  0.0376  0.0008  0.0282  0.0022  0.0147  0.0116  0.0195  0.0335  0.0045 </r>
        <r>  0.0012  0.0210  0.0489  0.0604  0.0127  0.0004  0.0023  0.0010  0.0039 </r>
        <r>  0.0376  0.0008  0.0282  0.0022  0.0147  0.0116  0.0195  0.0335  0.0045 </r>
        <r>  0.0012  0.0210  0.0489  0.0604  0.0127  0.0004  0.0023  0.0010  0.0039 </r>
       </set>
       <set comment="band 16">
        <r>  0.0074  0.0127  0.0646  0.0365  0.0078  0.0036  0.0060  0.0104  0.0024 </r>
        <r>  0.0645  0.0027  0.0794  0.0077  0.0042  0.0030  0.0181  0.0087  0.0013 </r>
        <r>  0.0074  0.0127  0.0646  0.0365  0.0078  0.0036  0.0060  0.0104  0.0024 </r>
        <r>  0.0645  0.0027  0.0794  0.0077  0.0042  0.0030  0.0181  0.0087  0.0013 </r>
       </set>
       <set comment="band 17">
        <r>  0.0000  0.0267  0.0000  0.0093  0.0054  0.0667  0.0000  0.0232  0.0176 </r>
        <r>  0.0000  0.0405  0.0000  0.0141  0.0059  0.0690  0.0000  0.0240  0.0192 </r>
        <r>  0.0000  0.0267  0.0000  0.0093  0.0054  0.0667  0.0000  0.0232  0.0176 </r>
        <r>  0.0000  0.0405  0.0000  0.0141  0.0059  0.0690  0.0000  0.0240  0.0192 </r>
       </set>
       <set comment="band 18">
        <r>  0.0188  0.0125  0.0111  0.0361  0.0061  0.0082  0.0144  0.0237  0.0019 </r>
        <r>  0.0083  0.0058  0.0328  0.0168  0.0287  0.0152  0.0040  0.0437  0.0088 </r>
        <r>  0.0188  0.0125  0.0111  0.0361  0.0061  0.0082  0.0144  0.0237  0.0019 </r>
        <r>  0.0083  0.0058  0.0328  0.0168  0.0287  0.0152  0.0040  0.0437  0.0088 </r>
       </set>
       <set comment="band 19">
        <r>  0.0040  0.0118  0.0207  0.0338  0.0008  0.0025  0.1060  0.0070  0.0003 </r>
        <r>  0.0132  0.0088  0.0372  0.0253  0.0044  0.0091  0.0493  0.0261  0.0014 </r>
        <r>  0.0040  0.0118  0.0207  0.0338  0.0008  0.0025  0.1060  0.0070  0.0003 </r>
        <r>  0.0132  0.0088  0.0372  0.0253  0.0044  0.0091  0.0493  0.0261  0.0014 </r>
       </set>
       <set comment="band 20">
        <r>  0.0042  0.0180  0.0514  0.0517  0.0143  0.0095  0.0135  0.0272  0.0044 </r>
        <r>  0.0155  0.0014  0.0418  0.0041  0.0005  0.0046  0.0547  0.0132  0.0002 </r>
        <r>  0.0042  0.0180  0.0514  0.0517  0.0143  0.0095  0.0135  0.0272  0.0044 </r>
        <r>  0.0155  0.0014  0.0418  0.0041  0.0005  0.0046  0.0547  0.0132  0.0002 </r>
       </set>
       <set comment="band 21">
        <r>  0.0000  0.0008  0.0000  0.0003  0.0304  0.0076  0.0000  0.0026  0.0994 </r>
        <r>  0.0000  0.0325  0.0000  0.0113  0.0228  0.0173  0.0000  0.0060  0.0746 </r>
        <r>  0.0000  0.0008  0.0000  0.0003  0.0304  0.0076  0.0000  0.0026  0.0994 </r>
        <r>  0.0000  0.0325  0.0000  0.0113  0.0228  0.0173  0.0000  0.0060  0.0746 </r>
       </set>
       <set comment="band 22">
        <r>  0.0000  0.0647  0.0000  0.0224  0.0004  0.0465  0.0000  0.0161  0.0012 </r>
        <r>  0.0000  0.0154  0.0000  0.0051  0.0086  0.0292  0.0000  0.0099  0.0278 </r>
        <r>  0.0000  0.0647  0.0000  0.0224  0.0004  0.0465  0.0000  0.0161  0.0012 </r>
        <r>  0.0000  0.0154  0.0000  0.0051  0.0086  0.0292  0.0000  0.0099  0.0278 </r>
       </set>
       <set comment="band 23">
        <r>  0.0175  0.0007  0.0430  0.0024  0.0082  0.0007  0.0058  0.0022  0.0025 </r>
        <r>  0.0058  0.0139  0.0283  0.0406  0.0238  0.0054  0.0372  0.0163  0.0073 </r>
        <r>  0.0175  0.0007  0.0430  0.0024  0.0082  0.0007  0.0058  0.0022  0.0025 </r>
        <r>  0.0058  0.0139  0.0283  0.0406  0.0238  0.0054  0.0372  0.0163  0.0073 </r>
       </set>
       <set comment="band 24">
        <r>  0.0069  0.0076  0.0291  0.0220  0.0088  0.0034  0.0372  0.0098  0.0027 </r>
        <r>  0.0075  0.0260  0.0284  0.0748  0.0038  0.0053  0.0366  0.0153  0.0012 </r>
        <r>  0.0069  0.0076  0.0291  0.0220  0.0088  0.0034  0.0372  0.0098  0.0027 </r>
        <r>  0.0075  0.0260  0.0284  0.0748  0.0038  0.0053  0.0366  0.0153  0.0012 </r>
       </set>
      </set>
      <set comment="kpoint 4">
       <set comment="band 1">
        <r>  0.1639  0.0211  0.0065  0.0077  0.0005  0.0007  0.0001  0.0003  0.0004 </r>
        <r>  0.1639  0.0215  0.0065  0.0073  0.0004  0.0006  0.0001  0.0004  0.0004 </r>
        <r>  0.1639  0.0211  0.0065  0.0077  0.0005  0.0007  0.0001  0.0003  0.0004 </r>
        <r>  0.1639  0.0215  0.0065  0.0073  0.0004  0.0006  0.0001  0.0004  0.0004 </r>
       </set>
       <set comment="band 2">
        <r>  0.1451  0.0264  0.0079  0.0275  0.0006  0.0013  0.0010  0.0004  0.0018 </r>
        <r>  0.1451  0.0343  0.0079  0.0196  0.0008  0.0004  0.0010  0.0014  0.0016 </r>
        <r>  0.1451  0.0264  0.0079  0.0275  0.0006  0.0013  0.0010  0.0004  0.0018 </r>
        <r>  0.1451  0.0343  0.0079  0.0196  0.0008  0.0004  0.0010  0.0014  0.0016 </r>
       </set>
       <set comment="band 3">
        <r>  0.1626  0.0207  0.0128  0.0085  0.0007  0.0012  0.0005  0.0035  0.0014 </r>
        <r>  0.1626  0.0001  0.0128  0.0290  0.0006  0.0043  0.0005  0.0004  0.0015 </r>
        <r>  0.1626  0.0207  0.0128  0.0085  0.0007  0.0012  0.0005  0.0035  0.0014 </r>
        <r>  0.1626  0.0001  0.0128  0.0290  0.0006  0.0043  0.0005  0.0004  0.0015 </r>
       </set>
       <set comment="band 4">
        <r>  0.0563  0.0453  0.0537  0.0228  0.0009  0.0045  0.0009  0.0005  0.0001 </r>
        <r>  0.0563  0.0346  0.0537  0.0334  0.0001  0.0007  0.0009  0.0043  0.0009 </r>
        <r>  0.0563  0.0453  0.0537  0.0228  0.0009  0.0045  0.0009  0.0005  0.0001 </r>
        <r>  0.0563  0.0346  0.0537  0.0334  0.0001  0.0007  0.0009  0.0043  0.0009 </r>
       </set>
       <set comment="band 5">
        <r>  0.0390  0.0043  0.0790  0.0596  0.0010  0.0023  0.0004  0.0042  0.0021 </r>
        <r>  0.0390  0.0518  0.0790  0.0121  0.0006  0.0044  0.0004  0.0021  0.0025 </r>
        <r>  0.0390  0.0043  0.0790  0.0596  0.0010  0.0023  0.0004  0.0042  0.0021 </r>
        <r>  0.0390  0.0518  0.0790  0.0121  0.0006  0.0044  0.0004  0.0021  0.0025 </r>
       </set>
       <set comment="band 6">
        <r>  0.0168  0.0516  0.0304  0.0835  0.0003  0.0025  0.0018  0.0030  0.0022 </r>
        <r>  0.0168  0.0407  0.0304  0.0943  0.0025  0.0015  0.0018  0.0040  0.0001 </r>
        <r>  0.0168  0.0516  0.0304  0.0835  0.0003  0.0025  0.0018  0.0030  0.0022 </r>
        <r>  0.0168  0.0407  0.0304  0.0943  0.0025  0.0015  0.0018  0.0040  0.0001 </r>
       </set>
       <set comment="band 7">
        <r>  0.0950  0.0391  0.0450  0.0009  0.0075  0.0042  0.0046  0.0028  0.0047 </r>
        <r>  0.0950  0.0092  0.0450  0.0308  0.0085  0.0060  0.0046  0.0010  0.0036 </r>
        <r>  0.0950  0.0391  0.0450  0.0009  0.0075  0.0042  0.0046  0.0028  0.0047 </r>
        <r>  0.0950  0.0092  0.0450  0.0308  0.0085  0.0060  0.0046  0.0010  0.0036 </r>
       </set>
       <set comment="band 8">
        <r>  0.0106  0.0398  0.0125  0.0583  0.0048  0.0062  0.0023  0.0111  0.0170 </r>
        <r>  0.0106  0.0153  0.0124  0.0828  0.0082  0.0046  0.0023  0.0127  0.0135 </r>
        <r>  0.0106  0.0398  0.0125  0.0583  0.0048  0.0062  0.0023  0.0111  0.0170 </r>
        <r>  0.0106  0.0153  0.0124  0.0828  0.0082  0.0046  0.0023  0.0127  0.0135 </r>
       </set>
       <set comment="band 9">
        <r>  0.0227  0.0026  0.0700  0.0263  0.0090  0.0108  0.0217  0.0003  0.0016 </r>
        <r>  0.0226  0.0273  0.0700  0.0015  0.0052  0.0036  0.0217  0.0074  0.0054 </r>
        <r>  0.0227  0.0026  0.0700  0.0263  0.0090  0.0108  0.0217  0.0003  0.0016 </r>
        <r>  0.0226  0.0273  0.0700  0.0015  0.0052  0.0036  0.0217  0.0074  0.0054 </r>
       </set>
       <set comment="band 10">
        <r>  0.0199  0.0451  0.0475  0.0380  0.0023  0.0082  0.0212  0.0097  0.0007 </r>
        <r>  0.0199  0.0216  0.0474  0.0615  0.0013  0.0166  0.0212  0.0014  0.0018 </r>
        <r>  0.0199  0.0451  0.0475  0.0380  0.0023  0.0082  0.0212  0.0097  0.0007 </r>
        <r>  0.0199  0.0216  0.0474  0.0615  0.0013  0.0166  0.0212  0.0014  0.0018 </r>
       </set>
       <set comment="band 11">
        <r>  0.0138  0.0522  0.0695  0.0263  0.0175  0.0008  0.0029  0.0141  0.0034 </r>
        <r>  0.0138  0.0635  0.0695  0.0150  0.0126  0.0102  0.0029  0.0047  0.0083 </r>
        <r>  0.0138  0.0522  0.0695  0.0263  0.0175  0.0008  0.0029  0.0141  0.0034 </r>
        <r>  0.0138  0.0635  0.0695  0.0150  0.0126  0.0102  0.0029  0.0047  0.0083 </r>
       </set>
       <set comment="band 12">
        <r>  0.0009  0.0020  0.0119  0.0758  0.0114  0.0125  0.0084  0.0307  0.0228 </r>
        <r>  0.0009  0.0528  0.0119  0.0251  0.0148  0.0103  0.0084  0.0329  0.0194 </r>
        <r>  0.0009  0.0020  0.0119  0.0758  0.0114  0.0125  0.0084  0.0307  0.0228 </r>
        <r>  0.0009  0.0528  0.0119  0.0251  0.0148  0.0103  0.0084  0.0329  0.0194 </r>
       </set>
       <set comment="band 13">
        <r>  0.0606  0.0350  0.0184  0.0440  0.0030  0.0086  0.0067  0.0009  0.0008 </r>
        <r>  0.0606  0.0706  0.0184  0.0085  0.0028  0.0037  0.0067  0.0058  0.0010 </r>
        <r>  0.0606  0.0350  0.0184  0.0440  0.0030  0.0086  0.0067  0.0009  0.0008 </r>
        <r>  0.0606  0.0706  0.0184  0.0085  0.0028  0.0037  0.0067  0.0058  0.0010 </r>
       </set>
       <set comment="band 14">
        <r>  0.0121  0.0631  0.0281  0.0303  0.0276  0.0026  0.0125  0.0052  0.0166 </r>
        <r>  0.0121  0.0637  0.0281  0.0297  0.0294  0.0077  0.0125  0.0001  0.0148 </r>
        <r>  0.0121  0.0631  0.0281  0.0303  0.0276  0.0026  0.0125  0.0052  0.0166 </r>
        <r>  0.0121  0.0637  0.0281  0.0297  0.0294  0.0077  0.0125  0.0001  0.0148 </r>
       </set>
       <set comment="band 15">
        <r>  0.0051  0.0245  0.0130  0.0072  0.0246  0.0082  0.0146  0.0069  0.0138 </r>
        <r>  0.0051  0.0017  0.0130  0.0301  0.0176  0.0058  0.0146  0.0092  0.0208 </r>
        <r>  0.0051  0.0245  0.0130  0.0072  0.0246  0.0082  0.0146  0.0069  0.0138 </r>
        <r>  0.0051  0.0017  0.0130  0.0301  0.0176  0.0058  0.0146  0.0092  0.0208 </r>
       </set>
       <set comment="band 16">
        <r>  0.0061  0.1051  0.0125  0.0069  0.0073  0.0104  0.0066  0.0092  0.0001 </r>
        <r>  0.0061  0.0496  0.0125  0.0624  0.0026  0.0094  0.0066  0.0102  0.0048 </r>
        <r>  0.0061  0.1051  0.0125  0.0069  0.0073  0.0104  0.0066  0.0092  0.0001 </r>
        <r>  0.0061  0.0496  0.0125  0.0624  0.0026  0.0094  0.0066  0.0102  0.0048 </r>
       </set>
       <set comment="band 17">
        <r>  0.0113  0.0554  0.0171  0.0270  0.0334  0.0340  0.0074  0.0013  0.0040 </r>
        <r>  0.0113  0.0628  0.0171  0.0196  0.0226  0.0065  0.0074  0.0287  0.0148 </r>
        <r>  0.0113  0.0554  0.0171  0.0270  0.0334  0.0340  0.0074  0.0013  0.0040 </r>
        <r>  0.0113  0.0628  0.0171  0.0196  0.0226  0.0065  0.0074  0.0287  0.0148 </r>
       </set>
       <set comment="band 18">
        <r>  0.0092  0.0249  0.0026  0.0293  0.0096  0.0147  0.0016  0.0169  0.0516 </r>
        <r>  0.0092  0.0235  0.0027  0.0310  0.0507  0.0212  0.0016  0.0103  0.0108 </r>
        <r>  0.0092  0.0249  0.0026  0.0293  0.0096  0.0147  0.0016  0.0169  0.0516 </r>
        <r>  0.0092  0.0235  0.0027  0.0310  0.0507  0.0212  0.0016  0.0103  0.0108 </r>
       </set>
       <set comment="band 19">
        <r>  0.0019  0.0141  0.1018  0.0276  0.0132  0.0216  0.0033  0.0130  0.0087 </r>
        <r>  0.0019  0.0076  0.1017  0.0338  0.0161  0.0231  0.0033  0.0117  0.0055 </r>
        <r>  0.0019  0.0141  0.1018  0.0276  0.0132  0.0216  0.0033  0.0130  0.0087 </r>
        <r>  0.0019  0.0076  0.1017  0.0338  0.0161  0.0231  0.0033  0.0117  0.0055 </r>
       </set>
       <set comment="band 20">
        <r>  0.0076  0.0065  0.0046  0.0231  0.0042  0.0190  0.0141  0.0425  0.0041 </r>
        <r>  0.0076  0.0099  0.0046  0.0198  0.0078  0.0212  0.0142  0.0405  0.0004 </r>
        <r>  0.0076  0.0065  0.0046  0.0231  0.0042  0.0190  0.0141  0.0425  0.0041 </r>
        <r>  0.0076  0.0099  0.0046  0.0198  0.0078  0.0212  0.0142  0.0405  0.0004 </r>
       </set>
       <set comment="band 21">
        <r>  0.0116  0.0112  0.0004  0.0489  0.0172  0.0286  0.0085  0.0040  0.0035 </r>
        <r>  0.0117  0.0411  0.0003  0.0185  0.0107  0.0153  0.0085  0.0171  0.0093 </r>
        <r>  0.0116  0.0112  0.0004  0.0489  0.0172  0.0286  0.0085  0.0040  0.0035 </r>
        <r>  0.0117  0.0411  0.0003  0.0185  0.0107  0.0153  0.0085  0.0171  0.0093 </r>
       </set>
       <set comment="band 22">
        <r>  0.0067  0.0099  0.0053  0.0134  0.0018  0.0014  0.0649  0.0114  0.0208 </r>
        <r>  0.0049  0.0143  0.0053  0.0131  0.0118  0.0084  0.0799  0.0013  0.0129 </r>
        <r>  0.0067  0.0099  0.0053  0.0134  0.0018  0.0014  0.0649  0.0114  0.0208 </r>
        <r>  0.0049  0.0143  0.0053  0.0131  0.0118  0.0084  0.0799  0.0013  0.0129 </r>
       </set>
       <set comment="band 23">
        <r>  0.0014  0.0136  0.0170  0.0095  0.0066  0.0006  0.0470  0.0172  0.0207 </r>
        <r>  0.0034  0.0003  0.0180  0.0279  0.0000  0.0209  0.0255  0.0078  0.0385 </r>
        <r>  0.0014  0.0136  0.0170  0.0095  0.0066  0.0006  0.0470  0.0172  0.0207 </r>
        <r>  0.0034  0.0003  0.0180  0.0279  0.0000  0.0209  0.0255  0.0078  0.0385 </r>
       </set>
       <set comment="band 24">
        <r>  0.0133  0.0020  0.0462  0.0007  0.0151  0.0095  0.0447  0.0096  0.0058 </r>
        <r>  0.0112  0.0005  0.0430  0.0024  0.0004  0.0129  0.0459  0.0180  0.0106 </r>
        <r>  0.0133  0.0020  0.0462  0.0007  0.0151  0.0095  0.0447  0.0096  0.0058 </r>
        <r>  0.0112  0.0005  0.0430  0.0024  0.0004  0.0129  0.0459  0.0180  0.0106 </r>
       </set>
      </set>
     </set>
    </set>
   </array>
  </projected>
 </calculation>
 <structure name="finalpos" >
  <crystal>
   <varray name="basis" >
    <v>       4.35155188       0.01064991       0.00000000 </v>
    <v>      -2.09701412       3.81295742       0.00000000 </v>
    <v>       0.00000000       0.00000000       4.40600814 </v>
   </varray>
   <i name="volume">     73.20412919 </i>
   <varray name="rec_basis" >
    <v>       0.22949418       0.12621503       0.00000000 </v>
    <v>      -0.00064100       0.26191109       0.00000000 </v>
    <v>       0.00000000       0.00000000       0.22696281 </v>
   </varray>
  </crystal>
  <varray name="positions" >
   <v>       0.15604272       0.84395728       0.91665406 </v>
   <v>       0.34395728       0.65604272       0.41665406 </v>
   <v>       0.84395728       0.15604272       0.08334594 </v>
   <v>       0.65604272       0.34395728       0.58334594 </v>
  </varray>
 </structure>
</modeling>
